Sconfig 0.00000 tap: on snoop: rts? on errs? on
Sconfig 0.00000 salvage: on !bd replies? on
Sconfig 0.00000 grat error: on grat reply: on
Sconfig 0.00000 $reply for props: on ring 0 search: on
Sconfig 0.00000 using MOBICACHE
s 0.000000000 _0_ AGT  --- 0 udp 900 [0 0 0 0] [energy 100.000000 ei 0.000 es 0.000 et 0.000 er 0.000] ------- [0:0 6:0 32 0] 
r 0.000000000 _0_ RTR  --- 0 udp 900 [0 0 0 0] [energy 100.000000 ei 0.000 es 0.000 et 0.000 er 0.000] ------- [0:0 6:0 32 0] 
s 0.005244158 _0_ RTR  --- 1 SCDSR 160 [0 0 0 0] [energy 100.000000 ei 0.000 es 0.000 et 0.000 er 0.000] ------- [0:255 6:255 32 0] 1 [0 0] [0 0 0 0->0] [0 0 0 0->0]
s 0.005659158 _0_ MAC  --- 1 SCDSR 218 [0 ffffffff 0 800] [energy 100.000000 ei 0.000 es 0.000 et 0.000 er 0.000] ------- [0:255 6:255 32 0] 1 [0 0] [0 0 0 0->0] [0 0 0 0->0]
N -t 0.005660 -n 4 -e 99.989108
N -t 0.005660 -n 7 -e 99.989108
N -t 0.005660 -n 6 -e 99.989108
N -t 0.005660 -n 8 -e 99.989108
N -t 0.005660 -n 5 -e 99.989108
N -t 0.005660 -n 2 -e 99.989108
N -t 0.005660 -n 3 -e 99.989108
N -t 0.005660 -n 9 -e 99.989108
N -t 0.005660 -n 10 -e 99.989108
N -t 0.005660 -n 13 -e 99.989108
N -t 0.005660 -n 11 -e 99.989108
N -t 0.005660 -n 12 -e 99.989108
N -t 0.005661 -n 1 -e 99.989107
N -t 0.005661 -n 17 -e 99.989107
r 0.007403602 _4_ MAC  --- 1 SCDSR 160 [0 ffffffff 0 800] [energy 99.989108 ei 0.006 es 0.000 et 0.000 er 0.005] ------- [0:255 6:255 32 0] 1 [0 0] [0 0 0 0->0] [0 0 0 0->0]
r 0.007403629 _7_ MAC  --- 1 SCDSR 160 [0 ffffffff 0 800] [energy 99.989108 ei 0.006 es 0.000 et 0.000 er 0.005] ------- [0:255 6:255 32 0] 1 [0 0] [0 0 0 0->0] [0 0 0 0->0]
r 0.007403675 _6_ MAC  --- 1 SCDSR 160 [0 ffffffff 0 800] [energy 99.989108 ei 0.006 es 0.000 et 0.000 er 0.005] ------- [0:255 6:255 32 0] 1 [0 0] [0 0 0 0->0] [0 0 0 0->0]
r 0.007403741 _8_ MAC  --- 1 SCDSR 160 [0 ffffffff 0 800] [energy 99.989108 ei 0.006 es 0.000 et 0.000 er 0.005] ------- [0:255 6:255 32 0] 1 [0 0] [0 0 0 0->0] [0 0 0 0->0]
r 0.007403754 _5_ MAC  --- 1 SCDSR 160 [0 ffffffff 0 800] [energy 99.989108 ei 0.006 es 0.000 et 0.000 er 0.005] ------- [0:255 6:255 32 0] 1 [0 0] [0 0 0 0->0] [0 0 0 0->0]
r 0.007403903 _2_ MAC  --- 1 SCDSR 160 [0 ffffffff 0 800] [energy 99.989108 ei 0.006 es 0.000 et 0.000 er 0.005] ------- [0:255 6:255 32 0] 1 [0 0] [0 0 0 0->0] [0 0 0 0->0]
r 0.007428602 _4_ RTR  --- 1 SCDSR 160 [0 ffffffff 0 800] [energy 99.989108 ei 0.006 es 0.000 et 0.000 er 0.005] ------- [0:255 6:255 32 0] 1 [0 0] [0 0 0 0->0] [0 0 0 0->0]
r 0.007428629 _7_ RTR  --- 1 SCDSR 160 [0 ffffffff 0 800] [energy 99.989108 ei 0.006 es 0.000 et 0.000 er 0.005] ------- [0:255 6:255 32 0] 1 [0 0] [0 0 0 0->0] [0 0 0 0->0]
r 0.007428675 _6_ RTR  --- 1 SCDSR 160 [0 ffffffff 0 800] [energy 99.989108 ei 0.006 es 0.000 et 0.000 er 0.005] ------- [0:255 6:255 32 0] 1 [0 0] [0 0 0 0->0] [0 0 0 0->0]
r 0.007428741 _8_ RTR  --- 1 SCDSR 160 [0 ffffffff 0 800] [energy 99.989108 ei 0.006 es 0.000 et 0.000 er 0.005] ------- [0:255 6:255 32 0] 1 [0 0] [0 0 0 0->0] [0 0 0 0->0]
r 0.007428754 _5_ RTR  --- 1 SCDSR 160 [0 ffffffff 0 800] [energy 99.989108 ei 0.006 es 0.000 et 0.000 er 0.005] ------- [0:255 6:255 32 0] 1 [0 0] [0 0 0 0->0] [0 0 0 0->0]
r 0.007428903 _2_ RTR  --- 1 SCDSR 160 [0 ffffffff 0 800] [energy 99.989108 ei 0.006 es 0.000 et 0.000 er 0.005] ------- [0:255 6:255 32 0] 1 [0 0] [0 0 0 0->0] [0 0 0 0->0]
f 0.015171267 _7_ RTR  --- 1 SCDSR 164 [0 ffffffff 0 800] [energy 99.989108 ei 0.006 es 0.000 et 0.000 er 0.005] ------- [0:255 6:255 32 0] 2 [0 0] [0 0 0 0->0] [0 0 0 0->0]
s 0.015826267 _7_ MAC  --- 1 SCDSR 222 [0 ffffffff 7 800] [energy 99.989108 ei 0.006 es 0.000 et 0.000 er 0.005] ------- [0:255 6:255 32 0] 2 [0 0] [0 0 0 0->0] [0 0 0 0->0]
N -t 0.015827 -n 0 -e 99.975357
N -t 0.015827 -n 6 -e 99.975357
N -t 0.015827 -n 3 -e 99.975357
N -t 0.015827 -n 4 -e 99.975357
N -t 0.015827 -n 5 -e 99.975357
N -t 0.015827 -n 10 -e 99.975357
N -t 0.015827 -n 8 -e 99.975357
N -t 0.015827 -n 2 -e 99.975357
N -t 0.015828 -n 11 -e 99.975356
N -t 0.015828 -n 9 -e 99.975356
N -t 0.015828 -n 13 -e 99.975356
N -t 0.015828 -n 12 -e 99.975356
r 0.017602739 _0_ MAC  --- 1 SCDSR 164 [0 ffffffff 7 800] [energy 99.975357 ei 0.014 es 0.000 et 0.005 er 0.005] ------- [0:255 6:255 32 0] 2 [0 0] [0 0 0 0->0] [0 0 0 0->0]
r 0.017602763 _6_ MAC  --- 1 SCDSR 164 [0 ffffffff 7 800] [energy 99.975357 ei 0.014 es 0.000 et 0.000 er 0.011] ------- [0:255 6:255 32 0] 2 [0 0] [0 0 0 0->0] [0 0 0 0->0]
r 0.017602785 _3_ MAC  --- 1 SCDSR 164 [0 ffffffff 7 800] [energy 99.975357 ei 0.014 es 0.000 et 0.000 er 0.011] ------- [0:255 6:255 32 0] 2 [0 0] [0 0 0 0->0] [0 0 0 0->0]
r 0.017603069 _4_ MAC  --- 1 SCDSR 164 [0 ffffffff 7 800] [energy 99.975357 ei 0.014 es 0.000 et 0.000 er 0.011] ------- [0:255 6:255 32 0] 2 [0 0] [0 0 0 0->0] [0 0 0 0->0]
r 0.017627739 _0_ RTR  --- 1 SCDSR 164 [0 ffffffff 7 800] [energy 99.975357 ei 0.014 es 0.000 et 0.005 er 0.005] ------- [0:255 6:255 32 0] 2 [0 0] [0 0 0 0->0] [0 0 0 0->0]
r 0.017627763 _6_ RTR  --- 1 SCDSR 164 [0 ffffffff 7 800] [energy 99.975357 ei 0.014 es 0.000 et 0.000 er 0.011] ------- [0:255 6:255 32 0] 2 [0 0] [0 0 0 0->0] [0 0 0 0->0]
r 0.017627785 _3_ RTR  --- 1 SCDSR 164 [0 ffffffff 7 800] [energy 99.975357 ei 0.014 es 0.000 et 0.000 er 0.011] ------- [0:255 6:255 32 0] 2 [0 0] [0 0 0 0->0] [0 0 0 0->0]
r 0.017628069 _4_ RTR  --- 1 SCDSR 164 [0 ffffffff 7 800] [energy 99.975357 ei 0.014 es 0.000 et 0.000 er 0.011] ------- [0:255 6:255 32 0] 2 [0 0] [0 0 0 0->0] [0 0 0 0->0]
f 0.017890833 _4_ RTR  --- 1 SCDSR 164 [0 ffffffff 0 800] [energy 99.975357 ei 0.014 es 0.000 et 0.000 er 0.011] ------- [0:255 6:255 32 0] 2 [0 0] [0 0 0 0->0] [0 0 0 0->0]
s 0.018325833 _4_ MAC  --- 1 SCDSR 222 [0 ffffffff 4 800] [energy 99.975357 ei 0.014 es 0.000 et 0.000 er 0.011] ------- [0:255 6:255 32 0] 2 [0 0] [0 0 0 0->0] [0 0 0 0->0]
N -t 0.018326 -n 8 -e 99.969306
N -t 0.018326 -n 0 -e 99.969306
N -t 0.018327 -n 9 -e 99.969305
N -t 0.018327 -n 7 -e 99.969305
N -t 0.018327 -n 2 -e 99.969305
N -t 0.018327 -n 5 -e 99.969305
N -t 0.018327 -n 6 -e 99.969305
N -t 0.018327 -n 13 -e 99.969305
N -t 0.018327 -n 3 -e 99.969305
N -t 0.018327 -n 10 -e 99.969305
N -t 0.018327 -n 1 -e 99.972857
N -t 0.018327 -n 11 -e 99.969305
N -t 0.018327 -n 12 -e 99.969305
f 0.019689245 _6_ RTR  --- 1 SCDSR 164 [0 ffffffff 0 800] [energy 99.969305 ei 0.015 es 0.000 et 0.000 er 0.016] ------- [0:255 6:255 32 0] 2 [0 0] [0 0 0 0->0] [0 0 0 0->0]
r 0.020102239 _8_ MAC  --- 1 SCDSR 164 [0 ffffffff 4 800] [energy 99.969306 ei 0.015 es 0.000 et 0.000 er 0.016] ------- [0:255 6:255 32 0] 2 [0 0] [0 0 0 0->0] [0 0 0 0->0]
r 0.020102278 _0_ MAC  --- 1 SCDSR 164 [0 ffffffff 4 800] [energy 99.969306 ei 0.015 es 0.000 et 0.005 er 0.011] ------- [0:255 6:255 32 0] 2 [0 0] [0 0 0 0->0] [0 0 0 0->0]
r 0.020102608 _9_ MAC  --- 1 SCDSR 164 [0 ffffffff 4 800] [energy 99.969305 ei 0.015 es 0.000 et 0.000 er 0.016] ------- [0:255 6:255 32 0] 2 [0 0] [0 0 0 0->0] [0 0 0 0->0]
r 0.020102634 _7_ MAC  --- 1 SCDSR 164 [0 ffffffff 4 800] [energy 99.969305 ei 0.015 es 0.000 et 0.005 er 0.011] ------- [0:255 6:255 32 0] 2 [0 0] [0 0 0 0->0] [0 0 0 0->0]
r 0.020127239 _8_ RTR  --- 1 SCDSR 164 [0 ffffffff 4 800] [energy 99.969306 ei 0.015 es 0.000 et 0.000 er 0.016] ------- [0:255 6:255 32 0] 2 [0 0] [0 0 0 0->0] [0 0 0 0->0]
r 0.020127278 _0_ RTR  --- 1 SCDSR 164 [0 ffffffff 4 800] [energy 99.969306 ei 0.015 es 0.000 et 0.005 er 0.011] ------- [0:255 6:255 32 0] 2 [0 0] [0 0 0 0->0] [0 0 0 0->0]
r 0.020127608 _9_ RTR  --- 1 SCDSR 164 [0 ffffffff 4 800] [energy 99.969305 ei 0.015 es 0.000 et 0.000 er 0.016] ------- [0:255 6:255 32 0] 2 [0 0] [0 0 0 0->0] [0 0 0 0->0]
r 0.020127634 _7_ RTR  --- 1 SCDSR 164 [0 ffffffff 4 800] [energy 99.969305 ei 0.015 es 0.000 et 0.005 er 0.011] ------- [0:255 6:255 32 0] 2 [0 0] [0 0 0 0->0] [0 0 0 0->0]
s 0.020556795 _6_ MAC  --- 1 SCDSR 222 [0 ffffffff 6 800] [energy 99.969305 ei 0.015 es 0.000 et 0.000 er 0.016] ------- [0:255 6:255 32 0] 2 [0 0] [0 0 0 0->0] [0 0 0 0->0]
N -t 0.020557 -n 5 -e 99.963523
N -t 0.020557 -n 3 -e 99.963523
N -t 0.020557 -n 7 -e 99.963523
N -t 0.020557 -n 0 -e 99.963523
N -t 0.020557 -n 10 -e 99.963523
N -t 0.020558 -n 2 -e 99.963522
N -t 0.020558 -n 4 -e 99.963522
N -t 0.020558 -n 11 -e 99.963522
N -t 0.020558 -n 8 -e 99.963522
N -t 0.020558 -n 13 -e 99.963522
N -t 0.020558 -n 12 -e 99.963522
N -t 0.020558 -n 9 -e 99.963522
N -t 0.020558 -n 17 -e 99.970626
N -t 0.020558 -n 1 -e 99.967074
f 0.021412232 _5_ RTR  --- 1 SCDSR 164 [0 ffffffff 0 800] [energy 99.963523 ei 0.015 es 0.000 et 0.000 er 0.021] ------- [0:255 6:255 32 0] 2 [0 0] [0 0 0 0->0] [0 0 0 0->0]
r 0.022333258 _5_ MAC  --- 1 SCDSR 164 [0 ffffffff 6 800] [energy 99.963523 ei 0.015 es 0.000 et 0.000 er 0.021] ------- [0:255 6:255 32 0] 2 [0 0] [0 0 0 0->0] [0 0 0 0->0]
r 0.022333267 _3_ MAC  --- 1 SCDSR 164 [0 ffffffff 6 800] [energy 99.963523 ei 0.015 es 0.000 et 0.000 er 0.021] ------- [0:255 6:255 32 0] 2 [0 0] [0 0 0 0->0] [0 0 0 0->0]
r 0.022333291 _7_ MAC  --- 1 SCDSR 164 [0 ffffffff 6 800] [energy 99.963523 ei 0.015 es 0.000 et 0.005 er 0.016] ------- [0:255 6:255 32 0] 2 [0 0] [0 0 0 0->0] [0 0 0 0->0]
r 0.022333313 _0_ MAC  --- 1 SCDSR 164 [0 ffffffff 6 800] [energy 99.963523 ei 0.015 es 0.000 et 0.005 er 0.016] ------- [0:255 6:255 32 0] 2 [0 0] [0 0 0 0->0] [0 0 0 0->0]
r 0.022333333 _10_ MAC  --- 1 SCDSR 164 [0 ffffffff 6 800] [energy 99.963523 ei 0.015 es 0.000 et 0.000 er 0.021] ------- [0:255 6:255 32 0] 2 [0 0] [0 0 0 0->0] [0 0 0 0->0]
r 0.022358258 _5_ RTR  --- 1 SCDSR 164 [0 ffffffff 6 800] [energy 99.963523 ei 0.015 es 0.000 et 0.000 er 0.021] ------- [0:255 6:255 32 0] 2 [0 0] [0 0 0 0->0] [0 0 0 0->0]
r 0.022358267 _3_ RTR  --- 1 SCDSR 164 [0 ffffffff 6 800] [energy 99.963523 ei 0.015 es 0.000 et 0.000 er 0.021] ------- [0:255 6:255 32 0] 2 [0 0] [0 0 0 0->0] [0 0 0 0->0]
r 0.022358291 _7_ RTR  --- 1 SCDSR 164 [0 ffffffff 6 800] [energy 99.963523 ei 0.015 es 0.000 et 0.005 er 0.016] ------- [0:255 6:255 32 0] 2 [0 0] [0 0 0 0->0] [0 0 0 0->0]
r 0.022358313 _0_ RTR  --- 1 SCDSR 164 [0 ffffffff 6 800] [energy 99.963523 ei 0.015 es 0.000 et 0.005 er 0.016] ------- [0:255 6:255 32 0] 2 [0 0] [0 0 0 0->0] [0 0 0 0->0]
r 0.022358333 _10_ RTR  --- 1 SCDSR 164 [0 ffffffff 6 800] [energy 99.963523 ei 0.015 es 0.000 et 0.000 er 0.021] ------- [0:255 6:255 32 0] 2 [0 0] [0 0 0 0->0] [0 0 0 0->0]
s 0.022523258 _5_ MAC  --- 1 SCDSR 222 [0 ffffffff 5 800] [energy 99.963523 ei 0.015 es 0.000 et 0.000 er 0.021] ------- [0:255 6:255 32 0] 2 [0 0] [0 0 0 0->0] [0 0 0 0->0]
N -t 0.022524 -n 2 -e 99.958004
N -t 0.022524 -n 6 -e 99.958004
N -t 0.022524 -n 10 -e 99.958004
N -t 0.022524 -n 11 -e 99.958004
N -t 0.022524 -n 0 -e 99.958004
N -t 0.022524 -n 8 -e 99.958004
N -t 0.022524 -n 12 -e 99.958004
N -t 0.022524 -n 13 -e 99.958004
N -t 0.022524 -n 7 -e 99.958004
N -t 0.022524 -n 3 -e 99.958004
N -t 0.022524 -n 4 -e 99.958004
N -t 0.022524 -n 9 -e 99.958004
N -t 0.022524 -n 17 -e 99.965108
N -t 0.022524 -n 1 -e 99.961556
N -t 0.022525 -n 16 -e 99.972147
N -t 0.022525 -n 15 -e 99.972147
f 0.022988205 _8_ RTR  --- 1 SCDSR 164 [0 ffffffff 0 800] [energy 99.958004 ei 0.015 es 0.000 et 0.000 er 0.027] ------- [0:255 6:255 32 0] 2 [0 0] [0 0 0 0->0] [0 0 0 0->0]
f 0.024142569 _3_ RTR  --- 1 SCDSR 168 [0 ffffffff 7 800] [energy 99.958004 ei 0.015 es 0.000 et 0.000 er 0.027] ------- [0:255 6:255 32 0] 3 [0 0] [0 0 0 0->0] [0 0 0 0->0]
r 0.024299705 _2_ MAC  --- 1 SCDSR 164 [0 ffffffff 5 800] [energy 99.958004 ei 0.015 es 0.000 et 0.000 er 0.027] ------- [0:255 6:255 32 0] 2 [0 0] [0 0 0 0->0] [0 0 0 0->0]
r 0.024299721 _6_ MAC  --- 1 SCDSR 164 [0 ffffffff 5 800] [energy 99.958004 ei 0.015 es 0.000 et 0.005 er 0.021] ------- [0:255 6:255 32 0] 2 [0 0] [0 0 0 0->0] [0 0 0 0->0]
r 0.024299763 _10_ MAC  --- 1 SCDSR 164 [0 ffffffff 5 800] [energy 99.958004 ei 0.015 es 0.000 et 0.000 er 0.027] ------- [0:255 6:255 32 0] 2 [0 0] [0 0 0 0->0] [0 0 0 0->0]
r 0.024299834 _11_ MAC  --- 1 SCDSR 164 [0 ffffffff 5 800] [energy 99.958004 ei 0.015 es 0.000 et 0.000 er 0.027] ------- [0:255 6:255 32 0] 2 [0 0] [0 0 0 0->0] [0 0 0 0->0]
r 0.024299855 _0_ MAC  --- 1 SCDSR 164 [0 ffffffff 5 800] [energy 99.958004 ei 0.015 es 0.000 et 0.005 er 0.021] ------- [0:255 6:255 32 0] 2 [0 0] [0 0 0 0->0] [0 0 0 0->0]
r 0.024300060 _8_ MAC  --- 1 SCDSR 164 [0 ffffffff 5 800] [energy 99.958004 ei 0.015 es 0.000 et 0.000 er 0.027] ------- [0:255 6:255 32 0] 2 [0 0] [0 0 0 0->0] [0 0 0 0->0]
r 0.024324705 _2_ RTR  --- 1 SCDSR 164 [0 ffffffff 5 800] [energy 99.958004 ei 0.015 es 0.000 et 0.000 er 0.027] ------- [0:255 6:255 32 0] 2 [0 0] [0 0 0 0->0] [0 0 0 0->0]
r 0.024324721 _6_ RTR  --- 1 SCDSR 164 [0 ffffffff 5 800] [energy 99.958004 ei 0.015 es 0.000 et 0.005 er 0.021] ------- [0:255 6:255 32 0] 2 [0 0] [0 0 0 0->0] [0 0 0 0->0]
r 0.024324763 _10_ RTR  --- 1 SCDSR 164 [0 ffffffff 5 800] [energy 99.958004 ei 0.015 es 0.000 et 0.000 er 0.027] ------- [0:255 6:255 32 0] 2 [0 0] [0 0 0 0->0] [0 0 0 0->0]
r 0.024324834 _11_ RTR  --- 1 SCDSR 164 [0 ffffffff 5 800] [energy 99.958004 ei 0.015 es 0.000 et 0.000 er 0.027] ------- [0:255 6:255 32 0] 2 [0 0] [0 0 0 0->0] [0 0 0 0->0]
r 0.024324855 _0_ RTR  --- 1 SCDSR 164 [0 ffffffff 5 800] [energy 99.958004 ei 0.015 es 0.000 et 0.005 er 0.021] ------- [0:255 6:255 32 0] 2 [0 0] [0 0 0 0->0] [0 0 0 0->0]
r 0.024325060 _8_ RTR  --- 1 SCDSR 164 [0 ffffffff 5 800] [energy 99.958004 ei 0.015 es 0.000 et 0.000 er 0.027] ------- [0:255 6:255 32 0] 2 [0 0] [0 0 0 0->0] [0 0 0 0->0]
f 0.024649013 _10_ RTR  --- 1 SCDSR 168 [0 ffffffff 5 800] [energy 99.958004 ei 0.015 es 0.000 et 0.000 er 0.027] ------- [0:255 6:255 32 0] 3 [0 0] [0 0 0 0->0] [0 0 0 0->0]
s 0.024870060 _8_ MAC  --- 1 SCDSR 222 [0 ffffffff 8 800] [energy 99.958004 ei 0.015 es 0.000 et 0.000 er 0.027] ------- [0:255 6:255 32 0] 2 [0 0] [0 0 0 0->0] [0 0 0 0->0]
N -t 0.024870 -n 9 -e 99.952106
N -t 0.024870 -n 4 -e 99.952106
N -t 0.024871 -n 2 -e 99.952105
N -t 0.024871 -n 0 -e 99.952105
N -t 0.024871 -n 13 -e 99.952105
N -t 0.024871 -n 5 -e 99.952105
N -t 0.024871 -n 6 -e 99.952105
N -t 0.024871 -n 1 -e 99.955657
N -t 0.024871 -n 7 -e 99.952105
N -t 0.024871 -n 12 -e 99.952105
N -t 0.024871 -n 11 -e 99.952105
N -t 0.024871 -n 10 -e 99.952105
N -t 0.024871 -n 3 -e 99.952105
N -t 0.024872 -n 15 -e 99.966248
N -t 0.024872 -n 16 -e 99.966248
N -t 0.024872 -n 17 -e 99.959208
f 0.025634212 _5_ RTR  --- 1 SCDSR 168 [0 ffffffff 6 800] [energy 99.952105 ei 0.016 es 0.000 et 0.005 er 0.027] ------- [0:255 6:255 32 0] 3 [0 0] [0 0 0 0->0] [0 0 0 0->0]
f 0.026076800 _6_ RTR  --- 1 SCDSR 168 [0 ffffffff 5 800] [energy 99.952105 ei 0.016 es 0.000 et 0.005 er 0.027] ------- [0:255 6:255 32 0] 3 [0 0] [0 0 0 0->0] [0 0 0 0->0]
r 0.026646461 _9_ MAC  --- 1 SCDSR 164 [0 ffffffff 8 800] [energy 99.952106 ei 0.016 es 0.000 et 0.000 er 0.032] ------- [0:255 6:255 32 0] 2 [0 0] [0 0 0 0->0] [0 0 0 0->0]
r 0.026646465 _4_ MAC  --- 1 SCDSR 164 [0 ffffffff 8 800] [energy 99.952106 ei 0.016 es 0.000 et 0.005 er 0.027] ------- [0:255 6:255 32 0] 2 [0 0] [0 0 0 0->0] [0 0 0 0->0]
r 0.026646627 _2_ MAC  --- 1 SCDSR 164 [0 ffffffff 8 800] [energy 99.952105 ei 0.016 es 0.000 et 0.000 er 0.032] ------- [0:255 6:255 32 0] 2 [0 0] [0 0 0 0->0] [0 0 0 0->0]
r 0.026646643 _0_ MAC  --- 1 SCDSR 164 [0 ffffffff 8 800] [energy 99.952105 ei 0.016 es 0.000 et 0.005 er 0.027] ------- [0:255 6:255 32 0] 2 [0 0] [0 0 0 0->0] [0 0 0 0->0]
r 0.026646693 _13_ MAC  --- 1 SCDSR 164 [0 ffffffff 8 800] [energy 99.952105 ei 0.016 es 0.000 et 0.000 er 0.032] ------- [0:255 6:255 32 0] 2 [0 0] [0 0 0 0->0] [0 0 0 0->0]
r 0.026646861 _5_ MAC  --- 1 SCDSR 164 [0 ffffffff 8 800] [energy 99.952105 ei 0.016 es 0.000 et 0.005 er 0.027] ------- [0:255 6:255 32 0] 2 [0 0] [0 0 0 0->0] [0 0 0 0->0]
r 0.026671461 _9_ RTR  --- 1 SCDSR 164 [0 ffffffff 8 800] [energy 99.952106 ei 0.016 es 0.000 et 0.000 er 0.032] ------- [0:255 6:255 32 0] 2 [0 0] [0 0 0 0->0] [0 0 0 0->0]
r 0.026671465 _4_ RTR  --- 1 SCDSR 164 [0 ffffffff 8 800] [energy 99.952106 ei 0.016 es 0.000 et 0.005 er 0.027] ------- [0:255 6:255 32 0] 2 [0 0] [0 0 0 0->0] [0 0 0 0->0]
r 0.026671627 _2_ RTR  --- 1 SCDSR 164 [0 ffffffff 8 800] [energy 99.952105 ei 0.016 es 0.000 et 0.000 er 0.032] ------- [0:255 6:255 32 0] 2 [0 0] [0 0 0 0->0] [0 0 0 0->0]
r 0.026671643 _0_ RTR  --- 1 SCDSR 164 [0 ffffffff 8 800] [energy 99.952105 ei 0.016 es 0.000 et 0.005 er 0.027] ------- [0:255 6:255 32 0] 2 [0 0] [0 0 0 0->0] [0 0 0 0->0]
r 0.026671693 _13_ RTR  --- 1 SCDSR 164 [0 ffffffff 8 800] [energy 99.952105 ei 0.016 es 0.000 et 0.000 er 0.032] ------- [0:255 6:255 32 0] 2 [0 0] [0 0 0 0->0] [0 0 0 0->0]
r 0.026671861 _5_ RTR  --- 1 SCDSR 164 [0 ffffffff 8 800] [energy 99.952105 ei 0.016 es 0.000 et 0.005 er 0.027] ------- [0:255 6:255 32 0] 2 [0 0] [0 0 0 0->0] [0 0 0 0->0]
s 0.026976861 _5_ MAC  --- 1 SCDSR 226 [0 ffffffff 5 800] [energy 99.952105 ei 0.016 es 0.000 et 0.005 er 0.027] ------- [0:255 6:255 32 0] 3 [0 0] [0 0 0 0->0] [0 0 0 0->0]
N -t 0.026977 -n 2 -e 99.946351
N -t 0.026977 -n 6 -e 99.946351
N -t 0.026977 -n 10 -e 99.946351
N -t 0.026977 -n 11 -e 99.946351
N -t 0.026977 -n 0 -e 99.946351
N -t 0.026978 -n 8 -e 99.946350
N -t 0.026978 -n 12 -e 99.946350
N -t 0.026978 -n 13 -e 99.946350
N -t 0.026978 -n 7 -e 99.946350
N -t 0.026978 -n 3 -e 99.946350
N -t 0.026978 -n 4 -e 99.946350
N -t 0.026978 -n 9 -e 99.946350
N -t 0.026978 -n 17 -e 99.953454
N -t 0.026978 -n 1 -e 99.949902
N -t 0.026978 -n 16 -e 99.960494
N -t 0.026978 -n 15 -e 99.960494
f 0.027685645 _2_ RTR  --- 1 SCDSR 168 [0 ffffffff 5 800] [energy 99.946351 ei 0.016 es 0.000 et 0.000 er 0.037] ------- [0:255 6:255 32 0] 3 [0 0] [0 0 0 0->0] [0 0 0 0->0]
f 0.027979290 _10_ RTR  --- 1 SCDSR 168 [0 ffffffff 6 800] [energy 99.946351 ei 0.016 es 0.000 et 0.000 er 0.037] ------- [0:255 6:255 32 0] 3 [0 0] [0 0 0 0->0] [0 0 0 0->0]
f 0.028018165 _8_ RTR  --- 1 SCDSR 168 [0 ffffffff 5 800] [energy 99.946350 ei 0.016 es 0.000 et 0.005 er 0.032] ------- [0:255 6:255 32 0] 3 [0 0] [0 0 0 0->0] [0 0 0 0->0]
f 0.028198108 _2_ RTR  --- 1 SCDSR 164 [0 ffffffff 0 800] [energy 99.946351 ei 0.016 es 0.000 et 0.000 er 0.037] ------- [0:255 6:255 32 0] 2 [0 0] [0 0 0 0->0] [0 0 0 0->0]
r 0.028785308 _2_ MAC  --- 1 SCDSR 168 [0 ffffffff 5 800] [energy 99.946351 ei 0.016 es 0.000 et 0.000 er 0.037] ------- [0:255 6:255 32 0] 3 [0 0] [0 0 0 0->0] [0 0 0 0->0]
r 0.028785324 _6_ MAC  --- 1 SCDSR 168 [0 ffffffff 5 800] [energy 99.946351 ei 0.016 es 0.000 et 0.005 er 0.032] ------- [0:255 6:255 32 0] 3 [0 0] [0 0 0 0->0] [0 0 0 0->0]
r 0.028785365 _10_ MAC  --- 1 SCDSR 168 [0 ffffffff 5 800] [energy 99.946351 ei 0.016 es 0.000 et 0.000 er 0.037] ------- [0:255 6:255 32 0] 3 [0 0] [0 0 0 0->0] [0 0 0 0->0]
r 0.028785436 _11_ MAC  --- 1 SCDSR 168 [0 ffffffff 5 800] [energy 99.946351 ei 0.016 es 0.000 et 0.000 er 0.037] ------- [0:255 6:255 32 0] 3 [0 0] [0 0 0 0->0] [0 0 0 0->0]
r 0.028785457 _0_ MAC  --- 1 SCDSR 168 [0 ffffffff 5 800] [energy 99.946351 ei 0.016 es 0.000 et 0.005 er 0.032] ------- [0:255 6:255 32 0] 3 [0 0] [0 0 0 0->0] [0 0 0 0->0]
r 0.028785662 _8_ MAC  --- 1 SCDSR 168 [0 ffffffff 5 800] [energy 99.946350 ei 0.016 es 0.000 et 0.005 er 0.032] ------- [0:255 6:255 32 0] 3 [0 0] [0 0 0 0->0] [0 0 0 0->0]
r 0.028810308 _2_ RTR  --- 1 SCDSR 168 [0 ffffffff 5 800] [energy 99.946351 ei 0.016 es 0.000 et 0.000 er 0.037] ------- [0:255 6:255 32 0] 3 [0 0] [0 0 0 0->0] [0 0 0 0->0]
r 0.028810324 _6_ RTR  --- 1 SCDSR 168 [0 ffffffff 5 800] [energy 99.946351 ei 0.016 es 0.000 et 0.005 er 0.032] ------- [0:255 6:255 32 0] 3 [0 0] [0 0 0 0->0] [0 0 0 0->0]
r 0.028810365 _10_ RTR  --- 1 SCDSR 168 [0 ffffffff 5 800] [energy 99.946351 ei 0.016 es 0.000 et 0.000 er 0.037] ------- [0:255 6:255 32 0] 3 [0 0] [0 0 0 0->0] [0 0 0 0->0]
r 0.028810436 _11_ RTR  --- 1 SCDSR 168 [0 ffffffff 5 800] [energy 99.946351 ei 0.016 es 0.000 et 0.000 er 0.037] ------- [0:255 6:255 32 0] 3 [0 0] [0 0 0 0->0] [0 0 0 0->0]
r 0.028810457 _0_ RTR  --- 1 SCDSR 168 [0 ffffffff 5 800] [energy 99.946351 ei 0.016 es 0.000 et 0.005 er 0.032] ------- [0:255 6:255 32 0] 3 [0 0] [0 0 0 0->0] [0 0 0 0->0]
r 0.028810662 _8_ RTR  --- 1 SCDSR 168 [0 ffffffff 5 800] [energy 99.946350 ei 0.016 es 0.000 et 0.005 er 0.032] ------- [0:255 6:255 32 0] 3 [0 0] [0 0 0 0->0] [0 0 0 0->0]
s 0.028875365 _10_ MAC  --- 1 SCDSR 226 [0 ffffffff a 800] [energy 99.946351 ei 0.016 es 0.000 et 0.000 er 0.037] ------- [0:255 6:255 32 0] 3 [0 0] [0 0 0 0->0] [0 0 0 0->0]
N -t 0.028876 -n 5 -e 99.940836
N -t 0.028876 -n 6 -e 99.940836
N -t 0.028876 -n 11 -e 99.940836
N -t 0.028876 -n 3 -e 99.940836
N -t 0.028876 -n 17 -e 99.947940
N -t 0.028876 -n 2 -e 99.940836
N -t 0.028876 -n 0 -e 99.940836
N -t 0.028876 -n 7 -e 99.940836
N -t 0.028876 -n 12 -e 99.940836
N -t 0.028877 -n 8 -e 99.940835
N -t 0.028877 -n 13 -e 99.940835
N -t 0.028877 -n 4 -e 99.940835
N -t 0.028877 -n 1 -e 99.944387
N -t 0.028877 -n 9 -e 99.940835
N -t 0.028877 -n 16 -e 99.954979
r 0.030683870 _5_ MAC  --- 1 SCDSR 168 [0 ffffffff a 800] [energy 99.940836 ei 0.016 es 0.000 et 0.011 er 0.032] ------- [0:255 6:255 32 0] 3 [0 0] [0 0 0 0->0] [0 0 0 0->0]
r 0.030683903 _6_ MAC  --- 1 SCDSR 168 [0 ffffffff a 800] [energy 99.940836 ei 0.016 es 0.000 et 0.005 er 0.037] ------- [0:255 6:255 32 0] 3 [0 0] [0 0 0 0->0] [0 0 0 0->0]
r 0.030684006 _11_ MAC  --- 1 SCDSR 168 [0 ffffffff a 800] [energy 99.940836 ei 0.016 es 0.000 et 0.000 er 0.043] ------- [0:255 6:255 32 0] 3 [0 0] [0 0 0 0->0] [0 0 0 0->0]
r 0.030684168 _3_ MAC  --- 1 SCDSR 168 [0 ffffffff a 800] [energy 99.940836 ei 0.016 es 0.000 et 0.000 er 0.043] ------- [0:255 6:255 32 0] 3 [0 0] [0 0 0 0->0] [0 0 0 0->0]
r 0.030708870 _5_ RTR  --- 1 SCDSR 168 [0 ffffffff a 800] [energy 99.940836 ei 0.016 es 0.000 et 0.011 er 0.032] ------- [0:255 6:255 32 0] 3 [0 0] [0 0 0 0->0] [0 0 0 0->0]
r 0.030708903 _6_ RTR  --- 1 SCDSR 168 [0 ffffffff a 800] [energy 99.940836 ei 0.016 es 0.000 et 0.005 er 0.037] ------- [0:255 6:255 32 0] 3 [0 0] [0 0 0 0->0] [0 0 0 0->0]
r 0.030709006 _11_ RTR  --- 1 SCDSR 168 [0 ffffffff a 800] [energy 99.940836 ei 0.016 es 0.000 et 0.000 er 0.043] ------- [0:255 6:255 32 0] 3 [0 0] [0 0 0 0->0] [0 0 0 0->0]
r 0.030709168 _3_ RTR  --- 1 SCDSR 168 [0 ffffffff a 800] [energy 99.940836 ei 0.016 es 0.000 et 0.000 er 0.043] ------- [0:255 6:255 32 0] 3 [0 0] [0 0 0 0->0] [0 0 0 0->0]
s 0.030733365 _10_ MAC  --- 1 SCDSR 226 [0 ffffffff a 800] [energy 99.940837 ei 0.016 es 0.000 et 0.005 er 0.037] ------- [0:255 6:255 32 0] 3 [0 0] [0 0 0 0->0] [0 0 0 0->0]
N -t 0.030734 -n 5 -e 99.935362
N -t 0.030734 -n 6 -e 99.935362
N -t 0.030734 -n 11 -e 99.935362
N -t 0.030734 -n 3 -e 99.935362
N -t 0.030734 -n 17 -e 99.942466
N -t 0.030734 -n 2 -e 99.935362
N -t 0.030734 -n 0 -e 99.935362
N -t 0.030734 -n 7 -e 99.935362
N -t 0.030734 -n 12 -e 99.935362
N -t 0.030735 -n 8 -e 99.935361
N -t 0.030735 -n 13 -e 99.935361
N -t 0.030735 -n 4 -e 99.935361
N -t 0.030735 -n 1 -e 99.938913
N -t 0.030735 -n 9 -e 99.935361
N -t 0.030735 -n 16 -e 99.949505
r 0.032541870 _5_ MAC  --- 1 SCDSR 168 [0 ffffffff a 800] [energy 99.935362 ei 0.016 es 0.000 et 0.011 er 0.037] ------- [0:255 6:255 32 0] 3 [0 0] [0 0 0 0->0] [0 0 0 0->0]
r 0.032541903 _6_ MAC  --- 1 SCDSR 168 [0 ffffffff a 800] [energy 99.935362 ei 0.016 es 0.000 et 0.005 er 0.043] ------- [0:255 6:255 32 0] 3 [0 0] [0 0 0 0->0] [0 0 0 0->0]
r 0.032542006 _11_ MAC  --- 1 SCDSR 168 [0 ffffffff a 800] [energy 99.935362 ei 0.016 es 0.000 et 0.000 er 0.048] ------- [0:255 6:255 32 0] 3 [0 0] [0 0 0 0->0] [0 0 0 0->0]
r 0.032542168 _3_ MAC  --- 1 SCDSR 168 [0 ffffffff a 800] [energy 99.935362 ei 0.016 es 0.000 et 0.000 er 0.048] ------- [0:255 6:255 32 0] 3 [0 0] [0 0 0 0->0] [0 0 0 0->0]
r 0.032566870 _5_ RTR  --- 1 SCDSR 168 [0 ffffffff a 800] [energy 99.935362 ei 0.016 es 0.000 et 0.011 er 0.037] ------- [0:255 6:255 32 0] 3 [0 0] [0 0 0 0->0] [0 0 0 0->0]
r 0.032566903 _6_ RTR  --- 1 SCDSR 168 [0 ffffffff a 800] [energy 99.935362 ei 0.016 es 0.000 et 0.005 er 0.043] ------- [0:255 6:255 32 0] 3 [0 0] [0 0 0 0->0] [0 0 0 0->0]
r 0.032567006 _11_ RTR  --- 1 SCDSR 168 [0 ffffffff a 800] [energy 99.935362 ei 0.016 es 0.000 et 0.000 er 0.048] ------- [0:255 6:255 32 0] 3 [0 0] [0 0 0 0->0] [0 0 0 0->0]
r 0.032567168 _3_ RTR  --- 1 SCDSR 168 [0 ffffffff a 800] [energy 99.935362 ei 0.016 es 0.000 et 0.000 er 0.048] ------- [0:255 6:255 32 0] 3 [0 0] [0 0 0 0->0] [0 0 0 0->0]
s 0.032672168 _3_ MAC  --- 1 SCDSR 226 [0 ffffffff 3 800] [energy 99.935362 ei 0.016 es 0.000 et 0.000 er 0.048] ------- [0:255 6:255 32 0] 3 [0 0] [0 0 0 0->0] [0 0 0 0->0]
N -t 0.032673 -n 6 -e 99.929807
N -t 0.032673 -n 7 -e 99.929807
N -t 0.032673 -n 10 -e 99.929807
N -t 0.032673 -n 0 -e 99.929807
N -t 0.032673 -n 5 -e 99.929807
N -t 0.032673 -n 4 -e 99.929807
N -t 0.032674 -n 2 -e 99.929806
N -t 0.032674 -n 11 -e 99.929806
N -t 0.032674 -n 8 -e 99.929806
N -t 0.032674 -n 17 -e 99.936910
N -t 0.032674 -n 13 -e 99.929806
N -t 0.032674 -n 12 -e 99.929806
N -t 0.032674 -n 9 -e 99.929806
s 0.034394737 _0_ RTR  --- 1 SCDSR 168 [0 ffffffff 5 800] [energy 99.929807 ei 0.017 es 0.000 et 0.005 er 0.048] ------- [0:255 6:255 32 0] 3 [0 0] [0 0 0 0->0] [0 0 0 0->0]
r 0.034480640 _6_ MAC  --- 1 SCDSR 168 [0 ffffffff 3 800] [energy 99.929807 ei 0.017 es 0.000 et 0.005 er 0.048] ------- [0:255 6:255 32 0] 3 [0 0] [0 0 0 0->0] [0 0 0 0->0]
r 0.034480686 _7_ MAC  --- 1 SCDSR 168 [0 ffffffff 3 800] [energy 99.929807 ei 0.017 es 0.000 et 0.005 er 0.048] ------- [0:255 6:255 32 0] 3 [0 0] [0 0 0 0->0] [0 0 0 0->0]
r 0.034480971 _10_ MAC  --- 1 SCDSR 168 [0 ffffffff 3 800] [energy 99.929807 ei 0.017 es 0.000 et 0.011 er 0.043] ------- [0:255 6:255 32 0] 3 [0 0] [0 0 0 0->0] [0 0 0 0->0]
f 0.034484492 _3_ RTR  --- 1 SCDSR 168 [0 ffffffff 6 800] [energy 99.929808 ei 0.017 es 0.000 et 0.005 er 0.048] ------- [0:255 6:255 32 0] 3 [0 0] [0 0 0 0->0] [0 0 0 0->0]
r 0.034505640 _6_ RTR  --- 1 SCDSR 168 [0 ffffffff 3 800] [energy 99.929807 ei 0.017 es 0.000 et 0.005 er 0.048] ------- [0:255 6:255 32 0] 3 [0 0] [0 0 0 0->0] [0 0 0 0->0]
r 0.034505686 _7_ RTR  --- 1 SCDSR 168 [0 ffffffff 3 800] [energy 99.929807 ei 0.017 es 0.000 et 0.005 er 0.048] ------- [0:255 6:255 32 0] 3 [0 0] [0 0 0 0->0] [0 0 0 0->0]
r 0.034505971 _10_ RTR  --- 1 SCDSR 168 [0 ffffffff 3 800] [energy 99.929807 ei 0.017 es 0.000 et 0.011 er 0.043] ------- [0:255 6:255 32 0] 3 [0 0] [0 0 0 0->0] [0 0 0 0->0]
f 0.034526417 _13_ RTR  --- 1 SCDSR 168 [0 ffffffff 8 800] [energy 99.929806 ei 0.017 es 0.000 et 0.000 er 0.054] ------- [0:255 6:255 32 0] 3 [0 0] [0 0 0 0->0] [0 0 0 0->0]
s 0.034890640 _6_ MAC  --- 1 SCDSR 226 [0 ffffffff 6 800] [energy 99.929807 ei 0.017 es 0.000 et 0.005 er 0.048] ------- [0:255 6:255 32 0] 3 [0 0] [0 0 0 0->0] [0 0 0 0->0]
N -t 0.034891 -n 5 -e 99.923973
N -t 0.034891 -n 3 -e 99.923973
N -t 0.034891 -n 7 -e 99.923973
N -t 0.034891 -n 0 -e 99.923973
N -t 0.034891 -n 10 -e 99.923973
N -t 0.034892 -n 2 -e 99.923972
N -t 0.034892 -n 4 -e 99.923972
N -t 0.034892 -n 11 -e 99.923972
N -t 0.034892 -n 8 -e 99.923972
N -t 0.034892 -n 13 -e 99.923972
N -t 0.034892 -n 12 -e 99.923972
N -t 0.034892 -n 9 -e 99.923972
N -t 0.034892 -n 17 -e 99.931076
N -t 0.034892 -n 1 -e 99.931140
r 0.036699103 _5_ MAC  --- 1 SCDSR 168 [0 ffffffff 6 800] [energy 99.923973 ei 0.017 es 0.000 et 0.011 er 0.048] ------- [0:255 6:255 32 0] 3 [0 0] [0 0 0 0->0] [0 0 0 0->0]
r 0.036699111 _3_ MAC  --- 1 SCDSR 168 [0 ffffffff 6 800] [energy 99.923973 ei 0.017 es 0.000 et 0.005 er 0.054] ------- [0:255 6:255 32 0] 3 [0 0] [0 0 0 0->0] [0 0 0 0->0]
r 0.036699135 _7_ MAC  --- 1 SCDSR 168 [0 ffffffff 6 800] [energy 99.923973 ei 0.017 es 0.000 et 0.005 er 0.054] ------- [0:255 6:255 32 0] 3 [0 0] [0 0 0 0->0] [0 0 0 0->0]
r 0.036699157 _0_ MAC  --- 1 SCDSR 168 [0 ffffffff 6 800] [energy 99.923973 ei 0.017 es 0.000 et 0.005 er 0.054] ------- [0:255 6:255 32 0] 3 [0 0] [0 0 0 0->0] [0 0 0 0->0]
r 0.036699177 _10_ MAC  --- 1 SCDSR 168 [0 ffffffff 6 800] [energy 99.923973 ei 0.017 es 0.000 et 0.011 er 0.048] ------- [0:255 6:255 32 0] 3 [0 0] [0 0 0 0->0] [0 0 0 0->0]
r 0.036724103 _5_ RTR  --- 1 SCDSR 168 [0 ffffffff 6 800] [energy 99.923973 ei 0.017 es 0.000 et 0.011 er 0.048] ------- [0:255 6:255 32 0] 3 [0 0] [0 0 0 0->0] [0 0 0 0->0]
r 0.036724111 _3_ RTR  --- 1 SCDSR 168 [0 ffffffff 6 800] [energy 99.923973 ei 0.017 es 0.000 et 0.005 er 0.054] ------- [0:255 6:255 32 0] 3 [0 0] [0 0 0 0->0] [0 0 0 0->0]
r 0.036724135 _7_ RTR  --- 1 SCDSR 168 [0 ffffffff 6 800] [energy 99.923973 ei 0.017 es 0.000 et 0.005 er 0.054] ------- [0:255 6:255 32 0] 3 [0 0] [0 0 0 0->0] [0 0 0 0->0]
r 0.036724157 _0_ RTR  --- 1 SCDSR 168 [0 ffffffff 6 800] [energy 99.923973 ei 0.017 es 0.000 et 0.005 er 0.054] ------- [0:255 6:255 32 0] 3 [0 0] [0 0 0 0->0] [0 0 0 0->0]
r 0.036724177 _10_ RTR  --- 1 SCDSR 168 [0 ffffffff 6 800] [energy 99.923973 ei 0.017 es 0.000 et 0.011 er 0.048] ------- [0:255 6:255 32 0] 3 [0 0] [0 0 0 0->0] [0 0 0 0->0]
s 0.036769157 _0_ MAC  --- 1 SCDSR 226 [0 ffffffff 0 800] [energy 99.923973 ei 0.017 es 0.000 et 0.005 er 0.054] ------- [0:255 6:255 32 0] 3 [0 0] [0 0 0 0->0] [0 0 0 0->0]
N -t 0.036770 -n 4 -e 99.918478
N -t 0.036770 -n 7 -e 99.918478
N -t 0.036770 -n 6 -e 99.918478
N -t 0.036770 -n 8 -e 99.918478
N -t 0.036770 -n 5 -e 99.918478
N -t 0.036770 -n 2 -e 99.918478
N -t 0.036770 -n 3 -e 99.918478
N -t 0.036770 -n 9 -e 99.918478
N -t 0.036770 -n 10 -e 99.918478
N -t 0.036770 -n 13 -e 99.918478
N -t 0.036770 -n 11 -e 99.918478
N -t 0.036770 -n 12 -e 99.918478
N -t 0.036771 -n 1 -e 99.925645
N -t 0.036771 -n 17 -e 99.925581
r 0.038577602 _4_ MAC  --- 1 SCDSR 168 [0 ffffffff 0 800] [energy 99.918478 ei 0.017 es 0.000 et 0.005 er 0.059] ------- [0:255 6:255 32 0] 3 [0 0] [0 0 0 0->0] [0 0 0 0->0]
r 0.038577628 _7_ MAC  --- 1 SCDSR 168 [0 ffffffff 0 800] [energy 99.918478 ei 0.017 es 0.000 et 0.005 er 0.059] ------- [0:255 6:255 32 0] 3 [0 0] [0 0 0 0->0] [0 0 0 0->0]