n -t * -s 0  -x 400 -y 550 -Z 0 -z 30  -v circle -c gold
n -t * -s 1  -x 800 -y 700 -Z 0 -z 30  -v circle -c red
n -t * -s 2  -x 620 -y 590 -Z 0 -z 30  -v circle -c blue
n -t * -s 3  -x 340 -y 300 -Z 0 -z 30  -v circle -c purple
n -t * -s 4  -x 370 -y 680 -Z 0 -z 30  -v circle -c green
n -t * -s 5  -x 560 -y 470 -Z 0 -z 30  -v circle -c red
n -t * -s 6  -x 440 -y 400 -Z 0 -z 30  -v circle -c green
n -t * -s 7  -x 300 -y 450 -Z 0 -z 30  -v circle -c green
n -t * -s 8  -x 490 -y 700 -Z 0 -z 30  -v circle -c green
n -t * -s 9  -x 580 -y 780 -Z 0 -z 30  -v circle -c green
n -t * -s 10  -x 580 -y 320 -Z 0 -z 30  -v circle -c green
n -t * -s 11  -x 730 -y 440 -Z 0 -z 30  -v circle -c purple
n -t * -s 12  -x 800 -y 560 -Z 0 -z 30  -v circle -c green
n -t * -s 13  -x 680 -y 700 -Z 0 -z 30  -v circle -c green
n -t * -s 14  -x 1100 -y 660 -Z 0 -z 30  -v circle -c green
n -t * -s 15  -x 990 -y 700 -Z 0 -z 30  -v circle -c green
n -t * -s 16  -x 990 -y 530 -Z 0 -z 30  -v circle -c green
n -t * -s 17  -x 850 -y 310 -Z 0 -z 30  -v circle -c green
V -t * -v 1.0a5 -a 0
W -t * -x 1800 -y 1300
A -t * -n 1 -p 0 -o 0x7fffffff -c 30 -a 1
A -t * -h 1 -m 1073741823 -s 0
n -t 0 -s 0 -S DLABEL -l "Max Delay:7" -L ""
n -t 0 -s 1 -S DLABEL -l "(s1 1 1)" -L ""
n -t 0 -s 2 -S DLABEL -l "(s2 2 1)" -L ""
n -t 0 -s 3 -S DLABEL -l "(s3 2 1)" -L ""
n -t 0 -s 5 -S DLABEL -l "(s1 4 1)" -L ""
n -t 0 -s 11 -S DLABEL -l "(s3 1 1)" -L ""
+ -t 0.000000000 -s 0 -d -1 -p udp -e 900 -c 2 -a 0 -i 0 -k AGT 
- -t 0.000000000 -s 0 -d -1 -p udp -e 900 -c 2 -a 0 -i 0 -k AGT
h -t 0.000000000 -s 0 -d -1 -p udp -e 900 -c 2 -a 0 -i 0 -k AGT
+ -t 0.005244158 -s 0 -d -1 -p SCDSR -e 160 -c 2 -a 0 -i 1 -k RTR 
- -t 0.005244158 -s 0 -d -1 -p SCDSR -e 160 -c 2 -a 0 -i 1 -k RTR
h -t 0.005244158 -s 0 -d -1 -p SCDSR -e 160 -c 2 -a 0 -i 1 -k RTR
+ -t 0.005659158 -s 0 -d -1 -p SCDSR -e 218 -c 2 -a 0 -i 1 -k MAC 
- -t 0.005659158 -s 0 -d -1 -p SCDSR -e 218 -c 2 -a 0 -i 1 -k MAC
h -t 0.005659158 -s 0 -d -1 -p SCDSR -e 218 -c 2 -a 0 -i 1 -k MAC
r -t 0.007403602 -s 4 -d -1 -p SCDSR -e 160 -c 2 -a 0 -i 1 -k MAC
r -t 0.007403629 -s 7 -d -1 -p SCDSR -e 160 -c 2 -a 0 -i 1 -k MAC
r -t 0.007403675 -s 6 -d -1 -p SCDSR -e 160 -c 2 -a 0 -i 1 -k MAC
r -t 0.007403741 -s 8 -d -1 -p SCDSR -e 160 -c 2 -a 0 -i 1 -k MAC
r -t 0.007403754 -s 5 -d -1 -p SCDSR -e 160 -c 2 -a 0 -i 1 -k MAC
r -t 0.007403903 -s 2 -d -1 -p SCDSR -e 160 -c 2 -a 0 -i 1 -k MAC
+ -t 0.015171267 -s 7 -d -1 -p SCDSR -e 164 -c 2 -a 0 -i 1 -k RTR 
- -t 0.015171267 -s 7 -d -1 -p SCDSR -e 164 -c 2 -a 0 -i 1 -k RTR
h -t 0.015171267 -s 7 -d -1 -p SCDSR -e 164 -c 2 -a 0 -i 1 -k RTR
+ -t 0.015826267 -s 7 -d -1 -p SCDSR -e 222 -c 2 -a 0 -i 1 -k MAC 
- -t 0.015826267 -s 7 -d -1 -p SCDSR -e 222 -c 2 -a 0 -i 1 -k MAC
h -t 0.015826267 -s 7 -d -1 -p SCDSR -e 222 -c 2 -a 0 -i 1 -k MAC
r -t 0.017602739 -s 0 -d -1 -p SCDSR -e 164 -c 2 -a 0 -i 1 -k MAC
r -t 0.017602763 -s 6 -d -1 -p SCDSR -e 164 -c 2 -a 0 -i 1 -k MAC
r -t 0.017602785 -s 3 -d -1 -p SCDSR -e 164 -c 2 -a 0 -i 1 -k MAC
r -t 0.017603069 -s 4 -d -1 -p SCDSR -e 164 -c 2 -a 0 -i 1 -k MAC
+ -t 0.017890833 -s 4 -d -1 -p SCDSR -e 164 -c 2 -a 0 -i 1 -k RTR 
- -t 0.017890833 -s 4 -d -1 -p SCDSR -e 164 -c 2 -a 0 -i 1 -k RTR
h -t 0.017890833 -s 4 -d -1 -p SCDSR -e 164 -c 2 -a 0 -i 1 -k RTR
+ -t 0.018325833 -s 4 -d -1 -p SCDSR -e 222 -c 2 -a 0 -i 1 -k MAC 
- -t 0.018325833 -s 4 -d -1 -p SCDSR -e 222 -c 2 -a 0 -i 1 -k MAC
h -t 0.018325833 -s 4 -d -1 -p SCDSR -e 222 -c 2 -a 0 -i 1 -k MAC
+ -t 0.019689245 -s 6 -d -1 -p SCDSR -e 164 -c 2 -a 0 -i 1 -k RTR 
- -t 0.019689245 -s 6 -d -1 -p SCDSR -e 164 -c 2 -a 0 -i 1 -k RTR
h -t 0.019689245 -s 6 -d -1 -p SCDSR -e 164 -c 2 -a 0 -i 1 -k RTR
r -t 0.020102239 -s 8 -d -1 -p SCDSR -e 164 -c 2 -a 0 -i 1 -k MAC
r -t 0.020102278 -s 0 -d -1 -p SCDSR -e 164 -c 2 -a 0 -i 1 -k MAC
r -t 0.020102608 -s 9 -d -1 -p SCDSR -e 164 -c 2 -a 0 -i 1 -k MAC
r -t 0.020102634 -s 7 -d -1 -p SCDSR -e 164 -c 2 -a 0 -i 1 -k MAC
+ -t 0.020556795 -s 6 -d -1 -p SCDSR -e 222 -c 2 -a 0 -i 1 -k MAC 
- -t 0.020556795 -s 6 -d -1 -p SCDSR -e 222 -c 2 -a 0 -i 1 -k MAC
h -t 0.020556795 -s 6 -d -1 -p SCDSR -e 222 -c 2 -a 0 -i 1 -k MAC
+ -t 0.021412232 -s 5 -d -1 -p SCDSR -e 164 -c 2 -a 0 -i 1 -k RTR 
- -t 0.021412232 -s 5 -d -1 -p SCDSR -e 164 -c 2 -a 0 -i 1 -k RTR
h -t 0.021412232 -s 5 -d -1 -p SCDSR -e 164 -c 2 -a 0 -i 1 -k RTR
r -t 0.022333258 -s 5 -d -1 -p SCDSR -e 164 -c 2 -a 0 -i 1 -k MAC
r -t 0.022333267 -s 3 -d -1 -p SCDSR -e 164 -c 2 -a 0 -i 1 -k MAC
r -t 0.022333291 -s 7 -d -1 -p SCDSR -e 164 -c 2 -a 0 -i 1 -k MAC
r -t 0.022333313 -s 0 -d -1 -p SCDSR -e 164 -c 2 -a 0 -i 1 -k MAC
r -t 0.022333333 -s 10 -d -1 -p SCDSR -e 164 -c 2 -a 0 -i 1 -k MAC
+ -t 0.022523258 -s 5 -d -1 -p SCDSR -e 222 -c 2 -a 0 -i 1 -k MAC 
- -t 0.022523258 -s 5 -d -1 -p SCDSR -e 222 -c 2 -a 0 -i 1 -k MAC
h -t 0.022523258 -s 5 -d -1 -p SCDSR -e 222 -c 2 -a 0 -i 1 -k MAC
+ -t 0.022988205 -s 8 -d -1 -p SCDSR -e 164 -c 2 -a 0 -i 1 -k RTR 
- -t 0.022988205 -s 8 -d -1 -p SCDSR -e 164 -c 2 -a 0 -i 1 -k RTR
h -t 0.022988205 -s 8 -d -1 -p SCDSR -e 164 -c 2 -a 0 -i 1 -k RTR
+ -t 0.024142569 -s 3 -d -1 -p SCDSR -e 168 -c 2 -a 0 -i 1 -k RTR 
- -t 0.024142569 -s 3 -d -1 -p SCDSR -e 168 -c 2 -a 0 -i 1 -k RTR
h -t 0.024142569 -s 3 -d -1 -p SCDSR -e 168 -c 2 -a 0 -i 1 -k RTR
r -t 0.024299705 -s 2 -d -1 -p SCDSR -e 164 -c 2 -a 0 -i 1 -k MAC
r -t 0.024299721 -s 6 -d -1 -p SCDSR -e 164 -c 2 -a 0 -i 1 -k MAC
r -t 0.024299763 -s 10 -d -1 -p SCDSR -e 164 -c 2 -a 0 -i 1 -k MAC
r -t 0.024299834 -s 11 -d -1 -p SCDSR -e 164 -c 2 -a 0 -i 1 -k MAC
r -t 0.024299855 -s 0 -d -1 -p SCDSR -e 164 -c 2 -a 0 -i 1 -k MAC
r -t 0.024300060 -s 8 -d -1 -p SCDSR -e 164 -c 2 -a 0 -i 1 -k MAC
+ -t 0.024649013 -s 10 -d -1 -p SCDSR -e 168 -c 2 -a 0 -i 1 -k RTR 
- -t 0.024649013 -s 10 -d -1 -p SCDSR -e 168 -c 2 -a 0 -i 1 -k RTR
h -t 0.024649013 -s 10 -d -1 -p SCDSR -e 168 -c 2 -a 0 -i 1 -k RTR
+ -t 0.024870060 -s 8 -d -1 -p SCDSR -e 222 -c 2 -a 0 -i 1 -k MAC 
- -t 0.024870060 -s 8 -d -1 -p SCDSR -e 222 -c 2 -a 0 -i 1 -k MAC
h -t 0.024870060 -s 8 -d -1 -p SCDSR -e 222 -c 2 -a 0 -i 1 -k MAC
+ -t 0.025634212 -s 5 -d -1 -p SCDSR -e 168 -c 2 -a 0 -i 1 -k RTR 
- -t 0.025634212 -s 5 -d -1 -p SCDSR -e 168 -c 2 -a 0 -i 1 -k RTR
h -t 0.025634212 -s 5 -d -1 -p SCDSR -e 168 -c 2 -a 0 -i 1 -k RTR
+ -t 0.026076800 -s 6 -d -1 -p SCDSR -e 168 -c 2 -a 0 -i 1 -k RTR 
- -t 0.026076800 -s 6 -d -1 -p SCDSR -e 168 -c 2 -a 0 -i 1 -k RTR
h -t 0.026076800 -s 6 -d -1 -p SCDSR -e 168 -c 2 -a 0 -i 1 -k RTR
r -t 0.026646461 -s 9 -d -1 -p SCDSR -e 164 -c 2 -a 0 -i 1 -k MAC
r -t 0.026646465 -s 4 -d -1 -p SCDSR -e 164 -c 2 -a 0 -i 1 -k MAC
r -t 0.026646627 -s 2 -d -1 -p SCDSR -e 164 -c 2 -a 0 -i 1 -k MAC
r -t 0.026646643 -s 0 -d -1 -p SCDSR -e 164 -c 2 -a 0 -i 1 -k MAC
r -t 0.026646693 -s 13 -d -1 -p SCDSR -e 164 -c 2 -a 0 -i 1 -k MAC
r -t 0.026646861 -s 5 -d -1 -p SCDSR -e 164 -c 2 -a 0 -i 1 -k MAC
+ -t 0.026976861 -s 5 -d -1 -p SCDSR -e 226 -c 2 -a 0 -i 1 -k MAC 
- -t 0.026976861 -s 5 -d -1 -p SCDSR -e 226 -c 2 -a 0 -i 1 -k MAC
h -t 0.026976861 -s 5 -d -1 -p SCDSR -e 226 -c 2 -a 0 -i 1 -k MAC
+ -t 0.027685645 -s 2 -d -1 -p SCDSR -e 168 -c 2 -a 0 -i 1 -k RTR 
- -t 0.027685645 -s 2 -d -1 -p SCDSR -e 168 -c 2 -a 0 -i 1 -k RTR
h -t 0.027685645 -s 2 -d -1 -p SCDSR -e 168 -c 2 -a 0 -i 1 -k RTR
+ -t 0.027979290 -s 10 -d -1 -p SCDSR -e 168 -c 2 -a 0 -i 1 -k RTR 
- -t 0.027979290 -s 10 -d -1 -p SCDSR -e 168 -c 2 -a 0 -i 1 -k RTR
h -t 0.027979290 -s 10 -d -1 -p SCDSR -e 168 -c 2 -a 0 -i 1 -k RTR
+ -t 0.028018165 -s 8 -d -1 -p SCDSR -e 168 -c 2 -a 0 -i 1 -k RTR 
- -t 0.028018165 -s 8 -d -1 -p SCDSR -e 168 -c 2 -a 0 -i 1 -k RTR
h -t 0.028018165 -s 8 -d -1 -p SCDSR -e 168 -c 2 -a 0 -i 1 -k RTR
+ -t 0.028198108 -s 2 -d -1 -p SCDSR -e 164 -c 2 -a 0 -i 1 -k RTR 
- -t 0.028198108 -s 2 -d -1 -p SCDSR -e 164 -c 2 -a 0 -i 1 -k RTR
h -t 0.028198108 -s 2 -d -1 -p SCDSR -e 164 -c 2 -a 0 -i 1 -k RTR
r -t 0.028785308 -s 2 -d -1 -p SCDSR -e 168 -c 2 -a 0 -i 1 -k MAC
r -t 0.028785324 -s 6 -d -1 -p SCDSR -e 168 -c 2 -a 0 -i 1 -k MAC
r -t 0.028785365 -s 10 -d -1 -p SCDSR -e 168 -c 2 -a 0 -i 1 -k MAC
r -t 0.028785436 -s 11 -d -1 -p SCDSR -e 168 -c 2 -a 0 -i 1 -k MAC
r -t 0.028785457 -s 0 -d -1 -p SCDSR -e 168 -c 2 -a 0 -i 1 -k MAC
r -t 0.028785662 -s 8 -d -1 -p SCDSR -e 168 -c 2 -a 0 -i 1 -k MAC
+ -t 0.028875365 -s 10 -d -1 -p SCDSR -e 226 -c 2 -a 0 -i 1 -k MAC 
- -t 0.028875365 -s 10 -d -1 -p SCDSR -e 226 -c 2 -a 0 -i 1 -k MAC
h -t 0.028875365 -s 10 -d -1 -p SCDSR -e 226 -c 2 -a 0 -i 1 -k MAC
r -t 0.030683870 -s 5 -d -1 -p SCDSR -e 168 -c 2 -a 0 -i 1 -k MAC
r -t 0.030683903 -s 6 -d -1 -p SCDSR -e 168 -c 2 -a 0 -i 1 -k MAC
r -t 0.030684006 -s 11 -d -1 -p SCDSR -e 168 -c 2 -a 0 -i 1 -k MAC
r -t 0.030684168 -s 3 -d -1 -p SCDSR -e 168 -c 2 -a 0 -i 1 -k MAC
+ -t 0.030733365 -s 10 -d -1 -p SCDSR -e 226 -c 2 -a 0 -i 1 -k MAC 
- -t 0.030733365 -s 10 -d -1 -p SCDSR -e 226 -c 2 -a 0 -i 1 -k MAC
h -t 0.030733365 -s 10 -d -1 -p SCDSR -e 226 -c 2 -a 0 -i 1 -k MAC
r -t 0.032541870 -s 5 -d -1 -p SCDSR -e 168 -c 2 -a 0 -i 1 -k MAC
r -t 0.032541903 -s 6 -d -1 -p SCDSR -e 168 -c 2 -a 0 -i 1 -k MAC
r -t 0.032542006 -s 11 -d -1 -p SCDSR -e 168 -c 2 -a 0 -i 1 -k MAC
r -t 0.032542168 -s 3 -d -1 -p SCDSR -e 168 -c 2 -a 0 -i 1 -k MAC
+ -t 0.032672168 -s 3 -d -1 -p SCDSR -e 226 -c 2 -a 0 -i 1 -k MAC 
- -t 0.032672168 -s 3 -d -1 -p SCDSR -e 226 -c 2 -a 0 -i 1 -k MAC
h -t 0.032672168 -s 3 -d -1 -p SCDSR -e 226 -c 2 -a 0 -i 1 -k MAC
+ -t 0.034394737 -s 0 -d -1 -p SCDSR -e 168 -c 2 -a 0 -i 1 -k RTR 
- -t 0.034394737 -s 0 -d -1 -p SCDSR -e 168 -c 2 -a 0 -i 1 -k RTR
h -t 0.034394737 -s 0 -d -1 -p SCDSR -e 168 -c 2 -a 0 -i 1 -k RTR
r -t 0.034480640 -s 6 -d -1 -p SCDSR -e 168 -c 2 -a 0 -i 1 -k MAC
r -t 0.034480686 -s 7 -d -1 -p SCDSR -e 168 -c 2 -a 0 -i 1 -k MAC
r -t 0.034480971 -s 10 -d -1 -p SCDSR -e 168 -c 2 -a 0 -i 1 -k MAC
+ -t 0.034484492 -s 3 -d -1 -p SCDSR -e 168 -c 2 -a 0 -i 1 -k RTR 
- -t 0.034484492 -s 3 -d -1 -p SCDSR -e 168 -c 2 -a 0 -i 1 -k RTR
h -t 0.034484492 -s 3 -d -1 -p SCDSR -e 168 -c 2 -a 0 -i 1 -k RTR
+ -t 0.034526417 -s 13 -d -1 -p SCDSR -e 168 -c 2 -a 0 -i 1 -k RTR 
- -t 0.034526417 -s 13 -d -1 -p SCDSR -e 168 -c 2 -a 0 -i 1 -k RTR
h -t 0.034526417 -s 13 -d -1 -p SCDSR -e 168 -c 2 -a 0 -i 1 -k RTR
+ -t 0.034890640 -s 6 -d -1 -p SCDSR -e 226 -c 2 -a 0 -i 1 -k MAC 
- -t 0.034890640 -s 6 -d -1 -p SCDSR -e 226 -c 2 -a 0 -i 1 -k MAC
h -t 0.034890640 -s 6 -d -1 -p SCDSR -e 226 -c 2 -a 0 -i 1 -k MAC
r -t 0.036699103 -s 5 -d -1 -p SCDSR -e 168 -c 2 -a 0 -i 1 -k MAC
r -t 0.036699111 -s 3 -d -1 -p SCDSR -e 168 -c 2 -a 0 -i 1 -k MAC
r -t 0.036699135 -s 7 -d -1 -p SCDSR -e 168 -c 2 -a 0 -i 1 -k MAC
r -t 0.036699157 -s 0 -d -1 -p SCDSR -e 168 -c 2 -a 0 -i 1 -k MAC
r -t 0.036699177 -s 10 -d -1 -p SCDSR -e 168 -c 2 -a 0 -i 1 -k MAC
+ -t 0.036769157 -s 0 -d -1 -p SCDSR -e 226 -c 2 -a 0 -i 1 -k MAC 
- -t 0.036769157 -s 0 -d -1 -p SCDSR -e 226 -c 2 -a 0 -i 1 -k MAC
h -t 0.036769157 -s 0 -d -1 -p SCDSR -e 226 -c 2 -a 0 -i 1 -k MAC
r -t 0.038577602 -s 4 -d -1 -p SCDSR -e 168 -c 2 -a 0 -i 1 -k MAC
r -t 0.038577628 -s 7 -d -1 -p SCDSR -e 168 -c 2 -a 0 -i 1 -k MAC
r -t 0.038577675 -s 6 -d -1 -p SCDSR -e 168 -c 2 -a 0 -i 1 -k MAC
r -t 0.038577740 -s 8 -d -1 -p SCDSR -e 168 -c 2 -a 0 -i 1 -k MAC
r -t 0.038577753 -s 5 -d -1 -p SCDSR -e 168 -c 2 -a 0 -i 1 -k MAC
r -t 0.038577902 -s 2 -d -1 -p SCDSR -e 168 -c 2 -a 0 -i 1 -k MAC
+ -t 0.038629818 -s 2 -d -1 -p SCDSR -e 172 -c 2 -a 0 -i 1 -k RTR 
- -t 0.038629818 -s 2 -d -1 -p SCDSR -e 172 -c 2 -a 0 -i 1 -k RTR
h -t 0.038629818 -s 2 -d -1 -p SCDSR -e 172 -c 2 -a 0 -i 1 -k RTR
+ -t 0.038747902 -s 2 -d -1 -p SCDSR -e 226 -c 2 -a 0 -i 1 -k MAC 
- -t 0.038747902 -s 2 -d -1 -p SCDSR -e 226 -c 2 -a 0 -i 1 -k MAC
h -t 0.038747902 -s 2 -d -1 -p SCDSR -e 226 -c 2 -a 0 -i 1 -k MAC
+ -t 0.039464819 -s 3 -d -1 -p SCDSR -e 172 -c 2 -a 0 -i 1 -k RTR 
- -t 0.039464819 -s 3 -d -1 -p SCDSR -e 172 -c 2 -a 0 -i 1 -k RTR
h -t 0.039464819 -s 3 -d -1 -p SCDSR -e 172 -c 2 -a 0 -i 1 -k RTR
r -t 0.040556320 -s 13 -d -1 -p SCDSR -e 168 -c 2 -a 0 -i 1 -k MAC
r -t 0.040556350 -s 5 -d -1 -p SCDSR -e 168 -c 2 -a 0 -i 1 -k MAC
r -t 0.040556470 -s 8 -d -1 -p SCDSR -e 168 -c 2 -a 0 -i 1 -k MAC
r -t 0.040556511 -s 12 -d -1 -p SCDSR -e 168 -c 2 -a 0 -i 1 -k MAC
r -t 0.040556522 -s 11 -d -1 -p SCDSR -e 168 -c 2 -a 0 -i 1 -k MAC
r -t 0.040556550 -s 9 -d -1 -p SCDSR -e 168 -c 2 -a 0 -i 1 -k MAC
r -t 0.040556606 -s 1 -d -1 -p SCDSR -e 168 -c 2 -a 0 -i 1 -k MAC
r -t 0.040556648 -s 0 -d -1 -p SCDSR -e 168 -c 2 -a 0 -i 1 -k MAC
+ -t 0.040666470 -s 8 -d -1 -p SCDSR -e 226 -c 2 -a 0 -i 1 -k MAC 
- -t 0.040666470 -s 8 -d -1 -p SCDSR -e 226 -c 2 -a 0 -i 1 -k MAC
h -t 0.040666470 -s 8 -d -1 -p SCDSR -e 226 -c 2 -a 0 -i 1 -k MAC
+ -t 0.042175655 -s 11 -d -1 -p SCDSR -e 168 -c 2 -a 0 -i 1 -k RTR 
- -t 0.042175655 -s 11 -d -1 -p SCDSR -e 168 -c 2 -a 0 -i 1 -k RTR
h -t 0.042175655 -s 11 -d -1 -p SCDSR -e 168 -c 2 -a 0 -i 1 -k RTR
r -t 0.042474871 -s 9 -d -1 -p SCDSR -e 168 -c 2 -a 0 -i 1 -k MAC
r -t 0.042474876 -s 4 -d -1 -p SCDSR -e 168 -c 2 -a 0 -i 1 -k MAC
r -t 0.042475038 -s 2 -d -1 -p SCDSR -e 168 -c 2 -a 0 -i 1 -k MAC
r -t 0.042475053 -s 0 -d -1 -p SCDSR -e 168 -c 2 -a 0 -i 1 -k MAC
r -t 0.042475103 -s 13 -d -1 -p SCDSR -e 168 -c 2 -a 0 -i 1 -k MAC
r -t 0.042475271 -s 5 -d -1 -p SCDSR -e 168 -c 2 -a 0 -i 1 -k MAC
+ -t 0.042565038 -s 2 -d -1 -p SCDSR -e 222 -c 2 -a 0 -i 1 -k MAC 
- -t 0.042565038 -s 2 -d -1 -p SCDSR -e 222 -c 2 -a 0 -i 1 -k MAC
h -t 0.042565038 -s 2 -d -1 -p SCDSR -e 222 -c 2 -a 0 -i 1 -k MAC
+ -t 0.042994565 -s 9 -d -1 -p SCDSR -e 168 -c 2 -a 0 -i 1 -k RTR 
- -t 0.042994565 -s 9 -d -1 -p SCDSR -e 168 -c 2 -a 0 -i 1 -k RTR
h -t 0.042994565 -s 9 -d -1 -p SCDSR -e 168 -c 2 -a 0 -i 1 -k RTR
+ -t 0.043227354 -s 5 -d -1 -p SCDSR -e 172 -c 2 -a 0 -i 1 -k RTR 
- -t 0.043227354 -s 5 -d -1 -p SCDSR -e 172 -c 2 -a 0 -i 1 -k RTR
h -t 0.043227354 -s 5 -d -1 -p SCDSR -e 172 -c 2 -a 0 -i 1 -k RTR
r -t 0.044341455 -s 13 -d -1 -p SCDSR -e 164 -c 2 -a 0 -i 1 -k MAC
r -t 0.044341485 -s 5 -d -1 -p SCDSR -e 164 -c 2 -a 0 -i 1 -k MAC
r -t 0.044341605 -s 8 -d -1 -p SCDSR -e 164 -c 2 -a 0 -i 1 -k MAC
r -t 0.044341646 -s 12 -d -1 -p SCDSR -e 164 -c 2 -a 0 -i 1 -k MAC
r -t 0.044341658 -s 11 -d -1 -p SCDSR -e 164 -c 2 -a 0 -i 1 -k MAC
r -t 0.044341685 -s 9 -d -1 -p SCDSR -e 164 -c 2 -a 0 -i 1 -k MAC
r -t 0.044341741 -s 1 -d -1 -p SCDSR -e 164 -c 2 -a 0 -i 1 -k MAC
r -t 0.044341783 -s 0 -d -1 -p SCDSR -e 164 -c 2 -a 0 -i 1 -k MAC
+ -t 0.044451658 -s 11 -d -1 -p SCDSR -e 226 -c 2 -a 0 -i 1 -k MAC 
- -t 0.044451658 -s 11 -d -1 -p SCDSR -e 226 -c 2 -a 0 -i 1 -k MAC
h -t 0.044451658 -s 11 -d -1 -p SCDSR -e 226 -c 2 -a 0 -i 1 -k MAC
r -t 0.046260121 -s 12 -d -1 -p SCDSR -e 168 -c 2 -a 0 -i 1 -k MAC
r -t 0.046260233 -s 5 -d -1 -p SCDSR -e 168 -c 2 -a 0 -i 1 -k MAC
r -t 0.046260248 -s 17 -d -1 -p SCDSR -e 168 -c 2 -a 0 -i 1 -k MAC
r -t 0.046260278 -s 2 -d -1 -p SCDSR -e 168 -c 2 -a 0 -i 1 -k MAC
r -t 0.046260298 -s 10 -d -1 -p SCDSR -e 168 -c 2 -a 0 -i 1 -k MAC
+ -t 0.046550233 -s 5 -d -1 -p SCDSR -e 230 -c 2 -a 0 -i 1 -k MAC 
- -t 0.046550233 -s 5 -d -1 -p SCDSR -e 230 -c 2 -a 0 -i 1 -k MAC
h -t 0.046550233 -s 5 -d -1 -p SCDSR -e 230 -c 2 -a 0 -i 1 -k MAC
+ -t 0.046550278 -s 2 -d -1 -p SCDSR -e 230 -c 2 -a 0 -i 1 -k MAC 
- -t 0.046550278 -s 2 -d -1 -p SCDSR -e 230 -c 2 -a 0 -i 1 -k MAC
h -t 0.046550278 -s 2 -d -1 -p SCDSR -e 230 -c 2 -a 0 -i 1 -k MAC
r -t 0.048390695 -s 13 -d -1 -p SCDSR -e 172 -c 2 -a 0 -i 1 -k MAC
r -t 0.048390696 -s 6 -d -1 -p SCDSR -e 172 -c 2 -a 0 -i 1 -k MAC
r -t 0.048390738 -s 10 -d -1 -p SCDSR -e 172 -c 2 -a 0 -i 1 -k MAC
r -t 0.048390809 -s 11 -d -1 -p SCDSR -e 172 -c 2 -a 0 -i 1 -k MAC
r -t 0.048390829 -s 0 -d -1 -p SCDSR -e 172 -c 2 -a 0 -i 1 -k MAC
r -t 0.048390845 -s 8 -d -1 -p SCDSR -e 172 -c 2 -a 0 -i 1 -k MAC
r -t 0.048390886 -s 12 -d -1 -p SCDSR -e 172 -c 2 -a 0 -i 1 -k MAC
r -t 0.048390925 -s 9 -d -1 -p SCDSR -e 172 -c 2 -a 0 -i 1 -k MAC
r -t 0.048390981 -s 1 -d -1 -p SCDSR -e 172 -c 2 -a 0 -i 1 -k MAC
+ -t 0.048788018 -s 12 -d -1 -p SCDSR -e 172 -c 2 -a 0 -i 1 -k RTR 
- -t 0.048788018 -s 12 -d -1 -p SCDSR -e 172 -c 2 -a 0 -i 1 -k RTR
h -t 0.048788018 -s 12 -d -1 -p SCDSR -e 172 -c 2 -a 0 -i 1 -k RTR
+ -t 0.048885098 -s 13 -d -1 -p SCDSR -e 226 -c 2 -a 0 -i 1 -k MAC 
- -t 0.048885098 -s 13 -d -1 -p SCDSR -e 226 -c 2 -a 0 -i 1 -k MAC
h -t 0.048885098 -s 13 -d -1 -p SCDSR -e 226 -c 2 -a 0 -i 1 -k MAC
+ -t 0.049399467 -s 6 -d -1 -p SCDSR -e 176 -c 2 -a 0 -i 1 -k RTR 
- -t 0.049399467 -s 6 -d -1 -p SCDSR -e 176 -c 2 -a 0 -i 1 -k RTR
h -t 0.049399467 -s 6 -d -1 -p SCDSR -e 176 -c 2 -a 0 -i 1 -k RTR
r -t 0.050693498 -s 1 -d -1 -p SCDSR -e 168 -c 2 -a 0 -i 1 -k MAC
r -t 0.050693516 -s 2 -d -1 -p SCDSR -e 168 -c 2 -a 0 -i 1 -k MAC
r -t 0.050693525 -s 9 -d -1 -p SCDSR -e 168 -c 2 -a 0 -i 1 -k MAC
r -t 0.050693713 -s 12 -d -1 -p SCDSR -e 168 -c 2 -a 0 -i 1 -k MAC
r -t 0.050693731 -s 8 -d -1 -p SCDSR -e 168 -c 2 -a 0 -i 1 -k MAC
+ -t 0.050883713 -s 12 -d -1 -p SCDSR -e 230 -c 2 -a 0 -i 1 -k MAC 
- -t 0.050883713 -s 12 -d -1 -p SCDSR -e 230 -c 2 -a 0 -i 1 -k MAC
h -t 0.050883713 -s 12 -d -1 -p SCDSR -e 230 -c 2 -a 0 -i 1 -k MAC
+ -t 0.051475786 -s 7 -d -1 -p SCDSR -e 172 -c 2 -a 0 -i 1 -k RTR 
- -t 0.051475786 -s 7 -d -1 -p SCDSR -e 172 -c 2 -a 0 -i 1 -k RTR
h -t 0.051475786 -s 7 -d -1 -p SCDSR -e 172 -c 2 -a 0 -i 1 -k RTR
r -t 0.052724176 -s 11 -d -1 -p SCDSR -e 172 -c 2 -a 0 -i 1 -k MAC
r -t 0.052724179 -s 1 -d -1 -p SCDSR -e 172 -c 2 -a 0 -i 1 -k MAC
r -t 0.052724321 -s 2 -d -1 -p SCDSR -e 172 -c 2 -a 0 -i 1 -k MAC
r -t 0.052724327 -s 13 -d -1 -p SCDSR -e 172 -c 2 -a 0 -i 1 -k MAC
r -t 0.052724354 -s 16 -d -1 -p SCDSR -e 172 -c 2 -a 0 -i 1 -k MAC
r -t 0.052724499 -s 15 -d -1 -p SCDSR -e 172 -c 2 -a 0 -i 1 -k MAC
+ -t 0.052971131 -s 9 -d -1 -p SCDSR -e 168 -c 2 -a 0 -i 1 -k RTR 
- -t 0.052971131 -s 9 -d -1 -p SCDSR -e 168 -c 2 -a 0 -i 1 -k RTR
h -t 0.052971131 -s 9 -d -1 -p SCDSR -e 168 -c 2 -a 0 -i 1 -k RTR
+ -t 0.053159474 -s 3 -d -1 -p SCDSR -e 226 -c 2 -a 0 -i 1 -k MAC 
- -t 0.053159474 -s 3 -d -1 -p SCDSR -e 226 -c 2 -a 0 -i 1 -k MAC
h -t 0.053159474 -s 3 -d -1 -p SCDSR -e 226 -c 2 -a 0 -i 1 -k MAC
+ -t 0.053181629 -s 9 -d -1 -p SCDSR -e 172 -c 2 -a 0 -i 1 -k RTR 
- -t 0.053181629 -s 9 -d -1 -p SCDSR -e 172 -c 2 -a 0 -i 1 -k RTR
h -t 0.053181629 -s 9 -d -1 -p SCDSR -e 172 -c 2 -a 0 -i 1 -k RTR
+ -t 0.053217922 -s 13 -d -1 -p SCDSR -e 172 -c 2 -a 0 -i 1 -k RTR 
- -t 0.053217922 -s 13 -d -1 -p SCDSR -e 172 -c 2 -a 0 -i 1 -k RTR
h -t 0.053217922 -s 13 -d -1 -p SCDSR -e 172 -c 2 -a 0 -i 1 -k RTR
+ -t 0.053707597 -s 16 -d -1 -p SCDSR -e 176 -c 2 -a 0 -i 1 -k RTR 
- -t 0.053707597 -s 16 -d -1 -p SCDSR -e 176 -c 2 -a 0 -i 1 -k RTR
h -t 0.053707597 -s 16 -d -1 -p SCDSR -e 176 -c 2 -a 0 -i 1 -k RTR
+ -t 0.053802597 -s 16 -d -1 -p SCDSR -e 234 -c 2 -a 0 -i 1 -k MAC 
- -t 0.053802597 -s 16 -d -1 -p SCDSR -e 234 -c 2 -a 0 -i 1 -k MAC
h -t 0.053802597 -s 16 -d -1 -p SCDSR -e 234 -c 2 -a 0 -i 1 -k MAC
+ -t 0.054258781 -s 3 -d -1 -p SCDSR -e 172 -c 2 -a 0 -i 1 -k RTR 
- -t 0.054258781 -s 3 -d -1 -p SCDSR -e 172 -c 2 -a 0 -i 1 -k RTR
h -t 0.054258781 -s 3 -d -1 -p SCDSR -e 172 -c 2 -a 0 -i 1 -k RTR
+ -t 0.054589585 -s 7 -d -1 -p SCDSR -e 172 -c 2 -a 0 -i 1 -k RTR 
- -t 0.054589585 -s 7 -d -1 -p SCDSR -e 172 -c 2 -a 0 -i 1 -k RTR
h -t 0.054589585 -s 7 -d -1 -p SCDSR -e 172 -c 2 -a 0 -i 1 -k RTR
r -t 0.054967945 -s 6 -d -1 -p SCDSR -e 168 -c 2 -a 0 -i 1 -k MAC
r -t 0.054967991 -s 7 -d -1 -p SCDSR -e 168 -c 2 -a 0 -i 1 -k MAC
r -t 0.054968277 -s 10 -d -1 -p SCDSR -e 168 -c 2 -a 0 -i 1 -k MAC
+ -t 0.055217945 -s 6 -d -1 -p SCDSR -e 234 -c 2 -a 0 -i 1 -k MAC 
- -t 0.055217945 -s 6 -d -1 -p SCDSR -e 234 -c 2 -a 0 -i 1 -k MAC
h -t 0.055217945 -s 6 -d -1 -p SCDSR -e 234 -c 2 -a 0 -i 1 -k MAC
+ -t 0.055574856 -s 1 -d -1 -p SCDSR -e 168 -c 2 -a 0 -i 1 -k RTR 
- -t 0.055574856 -s 1 -d -1 -p SCDSR -e 168 -c 2 -a 0 -i 1 -k RTR
h -t 0.055574856 -s 1 -d -1 -p SCDSR -e 168 -c 2 -a 0 -i 1 -k RTR
r -t 0.055675163 -s 15 -d -1 -p SCDSR -e 176 -c 2 -a 0 -i 1 -k MAC
r -t 0.055675164 -s 14 -d -1 -p SCDSR -e 176 -c 2 -a 0 -i 1 -k MAC
+ -t 0.055747878 -s 11 -d -1 -p SCDSR -e 172 -c 2 -a 0 -i 1 -k RTR 
- -t 0.055747878 -s 11 -d -1 -p SCDSR -e 172 -c 2 -a 0 -i 1 -k RTR
h -t 0.055747878 -s 11 -d -1 -p SCDSR -e 172 -c 2 -a 0 -i 1 -k RTR
+ -t 0.056180080 -s 14 -d -1 -p SCDSR -e 180 -c 2 -a 0 -i 1 -k RTR 
- -t 0.056180080 -s 14 -d -1 -p SCDSR -e 180 -c 2 -a 0 -i 1 -k RTR
h -t 0.056180080 -s 14 -d -1 -p SCDSR -e 180 -c 2 -a 0 -i 1 -k RTR
+ -t 0.056251680 -s 17 -d -1 -p SCDSR -e 172 -c 2 -a 0 -i 1 -k RTR 
- -t 0.056251680 -s 17 -d -1 -p SCDSR -e 172 -c 2 -a 0 -i 1 -k RTR
h -t 0.056251680 -s 17 -d -1 -p SCDSR -e 172 -c 2 -a 0 -i 1 -k RTR
+ -t 0.056557972 -s 12 -d -1 -p SCDSR -e 168 -c 2 -a 0 -i 1 -k RTR 
- -t 0.056557972 -s 12 -d -1 -p SCDSR -e 168 -c 2 -a 0 -i 1 -k RTR
h -t 0.056557972 -s 12 -d -1 -p SCDSR -e 168 -c 2 -a 0 -i 1 -k RTR
+ -t 0.056855080 -s 14 -d -1 -p SCDSR -e 238 -c 2 -a 0 -i 1 -k MAC 
- -t 0.056855080 -s 14 -d -1 -p SCDSR -e 238 -c 2 -a 0 -i 1 -k MAC
h -t 0.056855080 -s 14 -d -1 -p SCDSR -e 238 -c 2 -a 0 -i 1 -k MAC
r -t 0.057090408 -s 5 -d -1 -p SCDSR -e 176 -c 2 -a 0 -i 1 -k MAC
r -t 0.057090417 -s 3 -d -1 -p SCDSR -e 176 -c 2 -a 0 -i 1 -k MAC
r -t 0.057090441 -s 7 -d -1 -p SCDSR -e 176 -c 2 -a 0 -i 1 -k MAC
r -t 0.057090463 -s 0 -d -1 -p SCDSR -e 176 -c 2 -a 0 -i 1 -k MAC
r -t 0.057090483 -s 10 -d -1 -p SCDSR -e 176 -c 2 -a 0 -i 1 -k MAC
+ -t 0.057200417 -s 3 -d -1 -p SCDSR -e 230 -c 2 -a 0 -i 1 -k MAC 
- -t 0.057200417 -s 3 -d -1 -p SCDSR -e 230 -c 2 -a 0 -i 1 -k MAC
h -t 0.057200417 -s 3 -d -1 -p SCDSR -e 230 -c 2 -a 0 -i 1 -k MAC
+ -t 0.057885750 -s 1 -d -1 -p SCDSR -e 176 -c 2 -a 0 -i 1 -k RTR 
- -t 0.057885750 -s 1 -d -1 -p SCDSR -e 176 -c 2 -a 0 -i 1 -k RTR
h -t 0.057885750 -s 1 -d -1 -p SCDSR -e 176 -c 2 -a 0 -i 1 -k RTR
+ -t 0.058165022 -s 0 -d -1 -p SCDSR -e 172 -c 2 -a 0 -i 1 -k RTR 
- -t 0.058165022 -s 0 -d -1 -p SCDSR -e 172 -c 2 -a 0 -i 1 -k RTR
h -t 0.058165022 -s 0 -d -1 -p SCDSR -e 172 -c 2 -a 0 -i 1 -k RTR
r -t 0.058759470 -s 15 -d -1 -p SCDSR -e 180 -c 2 -a 0 -i 1 -k MAC
r -t 0.058759647 -s 16 -d -1 -p SCDSR -e 180 -c 2 -a 0 -i 1 -k MAC
r -t 0.059040888 -s 6 -d -1 -p SCDSR -e 172 -c 2 -a 0 -i 1 -k MAC
r -t 0.059040934 -s 7 -d -1 -p SCDSR -e 172 -c 2 -a 0 -i 1 -k MAC
r -t 0.059041219 -s 10 -d -1 -p SCDSR -e 172 -c 2 -a 0 -i 1 -k MAC
+ -t 0.059110417 -s 3 -d -1 -p SCDSR -e 230 -c 2 -a 0 -i 1 -k MAC 
- -t 0.059110417 -s 3 -d -1 -p SCDSR -e 230 -c 2 -a 0 -i 1 -k MAC
h -t 0.059110417 -s 3 -d -1 -p SCDSR -e 230 -c 2 -a 0 -i 1 -k MAC
+ -t 0.059252133 -s 4 -d -1 -p SCDSR -e 172 -c 2 -a 0 -i 1 -k RTR 
- -t 0.059252133 -s 4 -d -1 -p SCDSR -e 172 -c 2 -a 0 -i 1 -k RTR
h -t 0.059252133 -s 4 -d -1 -p SCDSR -e 172 -c 2 -a 0 -i 1 -k RTR
+ -t 0.059274088 -s 1 -d -1 -p SCDSR -e 226 -c 2 -a 0 -i 1 -k MAC 
- -t 0.059274088 -s 1 -d -1 -p SCDSR -e 226 -c 2 -a 0 -i 1 -k MAC
h -t 0.059274088 -s 1 -d -1 -p SCDSR -e 226 -c 2 -a 0 -i 1 -k MAC
+ -t 0.059373157 -s 10 -d -1 -p SCDSR -e 176 -c 2 -a 0 -i 1 -k RTR 
- -t 0.059373157 -s 10 -d -1 -p SCDSR -e 176 -c 2 -a 0 -i 1 -k RTR
h -t 0.059373157 -s 10 -d -1 -p SCDSR -e 176 -c 2 -a 0 -i 1 -k RTR
+ -t 0.060750348 -s 11 -d -1 -p SCDSR -e 168 -c 2 -a 0 -i 1 -k RTR 
- -t 0.060750348 -s 11 -d -1 -p SCDSR -e 168 -c 2 -a 0 -i 1 -k RTR
h -t 0.060750348 -s 11 -d -1 -p SCDSR -e 168 -c 2 -a 0 -i 1 -k RTR
r -t 0.060950888 -s 6 -d -1 -p SCDSR -e 172 -c 2 -a 0 -i 1 -k MAC
r -t 0.060950934 -s 7 -d -1 -p SCDSR -e 172 -c 2 -a 0 -i 1 -k MAC
r -t 0.060951219 -s 10 -d -1 -p SCDSR -e 172 -c 2 -a 0 -i 1 -k MAC
+ -t 0.061080934 -s 7 -d -1 -p SCDSR -e 230 -c 2 -a 0 -i 1 -k MAC 
- -t 0.061080934 -s 7 -d -1 -p SCDSR -e 230 -c 2 -a 0 -i 1 -k MAC
h -t 0.061080934 -s 7 -d -1 -p SCDSR -e 230 -c 2 -a 0 -i 1 -k MAC
r -t 0.061082722 -s 15 -d -1 -p SCDSR -e 168 -c 2 -a 0 -i 1 -k MAC
+ -t 0.061512088 -s 1 -d -1 -p SCDSR -e 234 -c 2 -a 0 -i 1 -k MAC 
- -t 0.061512088 -s 1 -d -1 -p SCDSR -e 234 -c 2 -a 0 -i 1 -k MAC
h -t 0.061512088 -s 1 -d -1 -p SCDSR -e 234 -c 2 -a 0 -i 1 -k MAC
+ -t 0.062422803 -s 9 -d -1 -p SCDSR -e 172 -c 2 -a 0 -i 1 -k RTR 
- -t 0.062422803 -s 9 -d -1 -p SCDSR -e 172 -c 2 -a 0 -i 1 -k RTR
h -t 0.062422803 -s 9 -d -1 -p SCDSR -e 172 -c 2 -a 0 -i 1 -k RTR
r -t 0.062921406 -s 0 -d -1 -p SCDSR -e 172 -c 2 -a 0 -i 1 -k MAC
r -t 0.062921430 -s 6 -d -1 -p SCDSR -e 172 -c 2 -a 0 -i 1 -k MAC
r -t 0.062921452 -s 3 -d -1 -p SCDSR -e 172 -c 2 -a 0 -i 1 -k MAC
r -t 0.062921736 -s 4 -d -1 -p SCDSR -e 172 -c 2 -a 0 -i 1 -k MAC
+ -t 0.063290934 -s 7 -d -1 -p SCDSR -e 230 -c 2 -a 0 -i 1 -k MAC 
- -t 0.063290934 -s 7 -d -1 -p SCDSR -e 230 -c 2 -a 0 -i 1 -k MAC
h -t 0.063290934 -s 7 -d -1 -p SCDSR -e 230 -c 2 -a 0 -i 1 -k MAC
r -t 0.063384722 -s 15 -d -1 -p SCDSR -e 176 -c 2 -a 0 -i 1 -k MAC
+ -t 0.063540002 -s 7 -d -1 -p SCDSR -e 180 -c 2 -a 0 -i 1 -k RTR 
- -t 0.063540002 -s 7 -d -1 -p SCDSR -e 180 -c 2 -a 0 -i 1 -k RTR
h -t 0.063540002 -s 7 -d -1 -p SCDSR -e 180 -c 2 -a 0 -i 1 -k RTR
+ -t 0.064219399 -s 17 -d -1 -p SCDSR -e 230 -c 2 -a 0 -i 1 -k MAC 
- -t 0.064219399 -s 17 -d -1 -p SCDSR -e 230 -c 2 -a 0 -i 1 -k MAC
h -t 0.064219399 -s 17 -d -1 -p SCDSR -e 230 -c 2 -a 0 -i 1 -k MAC
+ -t 0.064555766 -s 4 -d -1 -p SCDSR -e 172 -c 2 -a 0 -i 1 -k RTR 
- -t 0.064555766 -s 4 -d -1 -p SCDSR -e 172 -c 2 -a 0 -i 1 -k RTR
h -t 0.064555766 -s 4 -d -1 -p SCDSR -e 172 -c 2 -a 0 -i 1 -k RTR
+ -t 0.065013475 -s 8 -d -1 -p SCDSR -e 172 -c 2 -a 0 -i 1 -k RTR 
- -t 0.065013475 -s 8 -d -1 -p SCDSR -e 172 -c 2 -a 0 -i 1 -k RTR
h -t 0.065013475 -s 8 -d -1 -p SCDSR -e 172 -c 2 -a 0 -i 1 -k RTR
r -t 0.065131406 -s 0 -d -1 -p SCDSR -e 172 -c 2 -a 0 -i 1 -k MAC
r -t 0.065131430 -s 6 -d -1 -p SCDSR -e 172 -c 2 -a 0 -i 1 -k MAC
r -t 0.065131452 -s 3 -d -1 -p SCDSR -e 172 -c 2 -a 0 -i 1 -k MAC
r -t 0.065131736 -s 4 -d -1 -p SCDSR -e 172 -c 2 -a 0 -i 1 -k MAC
+ -t 0.065201736 -s 4 -d -1 -p SCDSR -e 230 -c 2 -a 0 -i 1 -k MAC 
- -t 0.065201736 -s 4 -d -1 -p SCDSR -e 230 -c 2 -a 0 -i 1 -k MAC
h -t 0.065201736 -s 4 -d -1 -p SCDSR -e 230 -c 2 -a 0 -i 1 -k MAC
+ -t 0.066820995 -s 1 -d -1 -p SCDSR -e 172 -c 2 -a 0 -i 1 -k RTR 
- -t 0.066820995 -s 1 -d -1 -p SCDSR -e 172 -c 2 -a 0 -i 1 -k RTR
h -t 0.066820995 -s 1 -d -1 -p SCDSR -e 172 -c 2 -a 0 -i 1 -k RTR
+ -t 0.066967574 -s 13 -d -1 -p SCDSR -e 172 -c 2 -a 0 -i 1 -k RTR 
- -t 0.066967574 -s 13 -d -1 -p SCDSR -e 172 -c 2 -a 0 -i 1 -k RTR
h -t 0.066967574 -s 13 -d -1 -p SCDSR -e 172 -c 2 -a 0 -i 1 -k RTR
r -t 0.067042141 -s 8 -d -1 -p SCDSR -e 172 -c 2 -a 0 -i 1 -k MAC
r -t 0.067042180 -s 0 -d -1 -p SCDSR -e 172 -c 2 -a 0 -i 1 -k MAC
r -t 0.067042511 -s 9 -d -1 -p SCDSR -e 172 -c 2 -a 0 -i 1 -k MAC
r -t 0.067042537 -s 7 -d -1 -p SCDSR -e 172 -c 2 -a 0 -i 1 -k MAC
+ -t 0.067112180 -s 0 -d -1 -p SCDSR -e 230 -c 2 -a 0 -i 1 -k MAC 
- -t 0.067112180 -s 0 -d -1 -p SCDSR -e 230 -c 2 -a 0 -i 1 -k MAC
h -t 0.067112180 -s 0 -d -1 -p SCDSR -e 230 -c 2 -a 0 -i 1 -k MAC
+ -t 0.067666940 -s 12 -d -1 -p SCDSR -e 172 -c 2 -a 0 -i 1 -k RTR 
- -t 0.067666940 -s 12 -d -1 -p SCDSR -e 172 -c 2 -a 0 -i 1 -k RTR
h -t 0.067666940 -s 12 -d -1 -p SCDSR -e 172 -c 2 -a 0 -i 1 -k RTR
r -t 0.068952625 -s 4 -d -1 -p SCDSR -e 172 -c 2 -a 0 -i 1 -k MAC
r -t 0.068952652 -s 7 -d -1 -p SCDSR -e 172 -c 2 -a 0 -i 1 -k MAC
r -t 0.068952698 -s 6 -d -1 -p SCDSR -e 172 -c 2 -a 0 -i 1 -k MAC
r -t 0.068952763 -s 8 -d -1 -p SCDSR -e 172 -c 2 -a 0 -i 1 -k MAC
r -t 0.068952777 -s 5 -d -1 -p SCDSR -e 172 -c 2 -a 0 -i 1 -k MAC
r -t 0.068952926 -s 2 -d -1 -p SCDSR -e 172 -c 2 -a 0 -i 1 -k MAC
+ -t 0.069222625 -s 4 -d -1 -p SCDSR -e 230 -c 2 -a 0 -i 1 -k MAC 
- -t 0.069222625 -s 4 -d -1 -p SCDSR -e 230 -c 2 -a 0 -i 1 -k MAC
h -t 0.069222625 -s 4 -d -1 -p SCDSR -e 230 -c 2 -a 0 -i 1 -k MAC
+ -t 0.069222763 -s 8 -d -1 -p SCDSR -e 230 -c 2 -a 0 -i 1 -k MAC 
- -t 0.069222763 -s 8 -d -1 -p SCDSR -e 230 -c 2 -a 0 -i 1 -k MAC
h -t 0.069222763 -s 8 -d -1 -p SCDSR -e 230 -c 2 -a 0 -i 1 -k MAC
r -t 0.071063070 -s 0 -d -1 -p SCDSR -e 172 -c 2 -a 0 -i 1 -k MAC
r -t 0.071063165 -s 9 -d -1 -p SCDSR -e 172 -c 2 -a 0 -i 1 -k MAC
r -t 0.071063331 -s 2 -d -1 -p SCDSR -e 172 -c 2 -a 0 -i 1 -k MAC
r -t 0.071063397 -s 13 -d -1 -p SCDSR -e 172 -c 2 -a 0 -i 1 -k MAC
r -t 0.071063426 -s 7 -d -1 -p SCDSR -e 172 -c 2 -a 0 -i 1 -k MAC
r -t 0.071063565 -s 5 -d -1 -p SCDSR -e 172 -c 2 -a 0 -i 1 -k MAC
+ -t 0.071498113 -s 12 -d -1 -p SCDSR -e 226 -c 2 -a 0 -i 1 -k MAC 
- -t 0.071498113 -s 12 -d -1 -p SCDSR -e 226 -c 2 -a 0 -i 1 -k MAC
h -t 0.071498113 -s 12 -d -1 -p SCDSR -e 226 -c 2 -a 0 -i 1 -k MAC
r -t 0.073306576 -s 11 -d -1 -p SCDSR -e 168 -c 2 -a 0 -i 1 -k MAC
r -t 0.073306580 -s 1 -d -1 -p SCDSR -e 168 -c 2 -a 0 -i 1 -k MAC
r -t 0.073306721 -s 2 -d -1 -p SCDSR -e 168 -c 2 -a 0 -i 1 -k MAC
r -t 0.073306728 -s 13 -d -1 -p SCDSR -e 168 -c 2 -a 0 -i 1 -k MAC
r -t 0.073306754 -s 16 -d -1 -p SCDSR -e 168 -c 2 -a 0 -i 1 -k MAC
r -t 0.073306900 -s 15 -d -1 -p SCDSR -e 168 -c 2 -a 0 -i 1 -k MAC
+ -t 0.073476580 -s 1 -d -1 -p SCDSR -e 230 -c 2 -a 0 -i 1 -k MAC 
- -t 0.073476580 -s 1 -d -1 -p SCDSR -e 230 -c 2 -a 0 -i 1 -k MAC
h -t 0.073476580 -s 1 -d -1 -p SCDSR -e 230 -c 2 -a 0 -i 1 -k MAC
+ -t 0.073981820 -s 7 -d -1 -p SCDSR -e 238 -c 2 -a 0 -i 1 -k MAC 
- -t 0.073981820 -s 7 -d -1 -p SCDSR -e 238 -c 2 -a 0 -i 1 -k MAC
h -t 0.073981820 -s 7 -d -1 -p SCDSR -e 238 -c 2 -a 0 -i 1 -k MAC
+ -t 0.075092692 -s 16 -d -1 -p SCDSR -e 172 -c 2 -a 0 -i 1 -k RTR 
- -t 0.075092692 -s 16 -d -1 -p SCDSR -e 172 -c 2 -a 0 -i 1 -k RTR
h -t 0.075092692 -s 16 -d -1 -p SCDSR -e 172 -c 2 -a 0 -i 1 -k RTR
r -t 0.075316980 -s 13 -d -1 -p SCDSR -e 172 -c 2 -a 0 -i 1 -k MAC
r -t 0.075317046 -s 12 -d -1 -p SCDSR -e 172 -c 2 -a 0 -i 1 -k MAC
r -t 0.075317213 -s 15 -d -1 -p SCDSR -e 172 -c 2 -a 0 -i 1 -k MAC
r -t 0.075317283 -s 2 -d -1 -p SCDSR -e 172 -c 2 -a 0 -i 1 -k MAC
r -t 0.075317360 -s 9 -d -1 -p SCDSR -e 172 -c 2 -a 0 -i 1 -k MAC
+ -t 0.075406563 -s 15 -d -1 -p SCDSR -e 176 -c 2 -a 0 -i 1 -k RTR 
- -t 0.075406563 -s 15 -d -1 -p SCDSR -e 176 -c 2 -a 0 -i 1 -k RTR
h -t 0.075406563 -s 15 -d -1 -p SCDSR -e 176 -c 2 -a 0 -i 1 -k RTR
+ -t 0.075721563 -s 15 -d -1 -p SCDSR -e 234 -c 2 -a 0 -i 1 -k MAC 